# vtk DataFile Version 4.0
vtk output
ASCII
DATASET POLYDATA
FIELD FieldData 5
irad 1 1 float
1.15 
srad 1 1 float
4 
spacing 3 1 float
1 1 1 
liveth 1 1 float
40 
seedth 1 1 float
30 
POINTS 326 float
24.0269 24.7663 2.68701 24.0269 24.7663 3.87375 24.0269 24.7663 5.05649 
24.0269 24.7663 6.24675 24.0269 24.7663 7.44782 24.0269 24.7663 8.64133 
24.0269 24.7663 9.83671 24.0269 24.7663 11.0232 24.0269 24.7663 12.2197 
24.0269 24.7663 13.417 24.0269 24.7663 14.3553 24.0269 24.7663 14.6043 
24.0269 24.7662 16.3057 24.0269 24.7663 19.6615 24.0269 24.7663 20.977 
24.0269 24.7663 21.7932 24.0269 24.7663 23.6724 24.0269 24.7663 22.8508 
24.0269 24.7663 24.7703 24.0269 24.7663 27.1076 24.0269 24.7663 25.9291 
24.0269 24.7663 28.3018 24.027 24.7663 29.4821 24.0269 24.7663 30.6605 
24.0269 24.7663 31.8465 24.0269 24.7663 33.0421 24.0269 24.7663 34.2098 
24.0269 24.7663 35.4001 24.0269 24.7663 37.7143 24.0269 24.7663 36.5899 
24.0269 24.7663 38.8193 24.0269 24.7663 40.4226 24.0269 24.7663 39.6076 
24.0269 24.7663 41.2393 24.0269 24.7663 43.2029 24.0269 24.7663 42.3151 
24.0269 24.7663 44.1292 24.027 24.7663 45.2117 24.0269 24.7663 46.3501 
24.0269 24.7663 47.5092 24.0269 24.7663 49.5023 24.0269 24.7663 48.3223 
24.0269 24.7663 50.6602 24.027 24.7663 51.7397 24.0269 24.7663 52.855 
24.0269 24.7663 53.8296 24.0269 24.7663 54.8609 24.0269 24.7663 57.1667 
24.0269 24.7663 55.9771 24.0269 24.7663 58.3522 24.0269 24.7663 59.5437 
24.0269 24.7663 60.6884 24.0269 24.7663 62.7606 24.0269 24.7663 61.8669 
24.0269 24.7663 63.9397 24.0269 24.7663 65.123 24.0269 24.7663 66.2994 
24.0269 24.7663 67.4507 24.0269 24.7663 68.6367 24.0269 24.7663 69.8011 
24.0269 24.7663 71.9928 24.0269 24.7663 70.8407 24.0269 24.7663 72.9903 
24.0269 24.7663 74.2664 24.0269 24.7663 75.4972 24.027 24.7663 76.7897 
24.0269 24.7663 78.2733 24.0269 24.7663 79.6937 24.0269 24.7663 80.876 
24.0269 24.7663 82.1585 24.0269 24.7662 82.9694 24.0269 24.7662 83.7796 
24.0269 24.7663 84.6106 24.0269 24.7663 86.7821 24.0269 24.7663 85.9847 
24.0269 24.7663 87.5757 24.0269 24.7663 88.4917 24.0269 24.7663 89.4041 
24.0269 24.7663 90.5528 24.0269 24.7663 91.362 24.0269 24.7663 92.4588 
24.0269 24.7663 94.1579 24.0269 24.7663 93.3182 24.027 24.7662 95.4056 
24.0269 24.7663 97.3594 24.0269 24.7663 96.6085 24.0269 24.7663 98.9323 
24.0269 24.7663 98.128 24.0269 24.7663 99.67 24.0269 24.7663 101.713 
24.0269 24.7663 100.805 24.027 24.7662 102.59 24.0269 24.7663 103.784 
24.0269 24.7663 104.913 24.0269 24.7663 106.16 24.0269 24.7663 107.421 
24.0269 24.7663 108.479 24.0269 24.7663 109.269 24.0269 24.7663 110.055 
24.027 24.7663 111.325 24.0269 24.7663 112.532 24.027 24.7663 113.732 
24.027 24.7663 114.93 24.027 24.7663 116.125 24.0269 24.7663 117.268 
24.0269 24.7663 118.575 24.0269 24.7663 119.89 24.0269 24.7663 120.973 
24.0269 24.7663 122.221 24.0269 24.7663 123.007 24.0269 24.7663 123.784 
24.0269 24.7662 124.695 24.0269 24.7662 125.571 24.0269 24.7663 126.53 
24.0269 24.7663 128.948 24.0269 24.7663 127.754 24.0269 24.7663 130.145 
24.027 24.7663 131.36 24.0269 24.7663 132.559 24.0269 24.7663 133.699 
24.027 24.7663 134.458 24.0269 24.7663 135.703 24.0269 24.7663 136.47 
24.0269 24.7663 137.231 24.0269 24.7663 138.475 24.0269 24.7663 139.678 
24.0269 24.7663 140.87 24.0269 24.7663 142.061 24.0269 24.7663 143.268 
24.027 24.7663 144.474 24.0269 24.7663 146.346 24.0269 24.7663 145.587 
24.0269 24.7663 147.507 24.0269 24.7663 149.392 24.027 24.7663 148.628 
24.0269 24.7663 150.524 24.0269 24.7663 151.645 24.0269 24.7663 152.403 
24.0269 24.7663 153.556 24.0269 24.7663 155.622 24.0269 24.7663 154.798 
24.0269 24.7663 156.459 24.0269 24.7663 157.336 24.0269 24.7663 158.193 
24.0269 24.7663 159.327 24.0269 24.7663 161.492 24.027 24.7662 160.695 
24.0269 24.7663 162.272 24.0269 24.7663 163.008 24.0269 24.7663 164.854 
24.0269 24.7663 163.775 24.0269 24.7663 166.187 24.0269 24.7663 167.547 
24.0269 24.7663 168.325 24.0269 24.7663 169.112 24.0269 24.7663 170.358 
24.027 24.7663 171.605 24.0269 24.7663 172.763 24.0269 24.7663 173.943 
24.0269 24.7663 175.164 24.0269 24.7663 176.385 24.0269 24.7663 177.6 
24.0269 24.7663 178.83 24.0269 24.7663 180.083 24.0269 24.7663 181.086 
24.0269 24.7663 181.797 24.0269 24.7663 182.511 24.0269 24.7662 183.95 
24.0269 24.7663 183.228 24.0269 24.7663 185.419 24.0269 24.7663 184.681 
24.0269 24.7663 186.172 24.027 24.7663 186.943 24.0269 24.7663 188.529 
24.0269 24.7663 187.731 24.0269 24.7663 189.338 24.0269 24.7663 190.1 
24.0269 24.7663 191.652 24.0269 24.7663 190.87 24.0269 24.7663 193.243 
24.0269 24.7663 192.447 24.0269 24.7663 193.988 24.0269 24.7663 194.742 
24.0269 24.7663 196.009 24.0269 24.7663 196.753 24.027 24.7663 197.5 
24.027 24.7663 199.01 24.0269 24.7663 198.253 24.027 24.7663 200.509 
24.0269 24.7663 199.768 24.0269 24.7663 201.267 24.0269 24.7663 202.523 
24.0269 24.7663 203.295 24.0269 24.7663 204.556 24.0269 24.7662 205.898 
24.027 24.7663 206.636 24.0269 24.7663 207.373 24.0269 24.7663 208.096 
24.0269 24.7663 209.525 24.0269 24.7663 208.811 24.0269 24.7663 210.977 
24.027 24.7663 210.248 24.027 24.7663 211.715 24.0269 24.7663 212.457 
24.0269 24.7663 213.197 24.0269 24.7663 213.93 24.0269 24.7663 214.66 
24.0269 24.7663 215.389 24.0269 24.7663 216.853 24.0269 24.7663 216.12 
24.0269 24.7663 218.32 24.0269 24.7663 217.586 24.0269 24.7663 219.787 
24.0269 24.7663 219.054 24.0269 24.7663 221.253 24.0269 24.7663 220.521 
24.0269 24.7663 222.711 24.0269 24.7663 223.438 24.0269 24.7663 221.983 
24.0269 24.7663 224.897 24.0269 24.7663 224.166 24.0269 24.7663 226.366 
24.0269 24.7663 225.631 24.027 24.7663 227.102 24.0269 24.7663 228.455 
24.0269 24.7663 230.486 24.0269 24.7663 229.719 24.0269 24.7662 231.252 
24.0269 24.7663 232.017 24.0269 24.7663 233.173 24.0269 24.7663 234.91 
24.0269 24.7663 234.12 24.027 24.7663 235.673 24.0269 24.7663 236.424 
24.0269 24.7663 237.17 24.0269 24.7663 237.901 24.0269 24.7663 238.624 
24.0269 24.7663 239.342 24.0269 24.7663 240.226 24.0269 24.7663 241.025 
24.0269 24.7663 242.539 24.0269 24.7663 241.796 24.0269 24.7663 244.004 
24.0269 24.7663 243.266 24.0269 24.7663 244.731 24.0269 24.7663 245.451 
24.0269 24.7663 246.908 24.027 24.7663 246.183 24.0269 24.7663 248.348 
24.0269 24.7663 247.629 24.0269 24.7663 249.705 24.0269 24.7663 251.266 
24.0269 24.7663 250.491 24.0269 24.7663 252.54 24.0269 24.7663 253.47 
24.0269 24.7663 254.266 24.0269 24.7663 255.816 24.0269 24.7663 255.046 
24.0269 24.7663 257.426 24.0269 24.7663 256.641 24.0269 24.7663 258.922 
24.0269 24.7663 258.184 24.0269 24.7663 259.649 24.0269 24.7663 260.969 
24.0269 24.7663 261.739 24.0269 24.7663 262.493 24.0269 24.7663 263.241 
24.0269 24.7663 264.445 24.0269 24.7663 265.338 24.0269 24.7663 266.167 
24.0269 24.7663 267.809 24.0269 24.7663 266.995 24.027 24.7663 269.401 
24.0269 24.7663 268.608 24.0269 24.7663 270.187 24.0269 24.7663 270.971 
24.0269 24.7663 272.542 24.0269 24.7663 271.759 24.0269 24.7663 273.321 
24.0269 24.7663 274.677 24.0269 24.7663 276.167 24.0269 24.7663 277.474 
24.0269 24.7663 278.225 24.0269 24.7663 278.963 24.0269 24.7663 279.75 
24.0269 24.7663 280.533 24.0269 24.7663 281.855 24.0269 24.7663 282.786 
24.0269 24.7663 283.615 24.0269 24.7663 284.554 24.0269 24.7663 285.377 
24.0269 24.7663 286.184 24.0269 24.7663 287.702 24.0269 24.7663 286.956 
24.0269 24.7663 289.149 24.0269 24.7663 288.429 24.0269 24.7663 289.863 
24.0269 24.7663 290.762 24.0269 24.7663 291.59 24.0269 24.7663 292.82 
24.0269 24.7663 293.784 24.027 24.7663 294.607 24.0269 24.7663 295.823 
24.0269 24.7663 296.596 24.0269 24.7663 297.347 24.027 24.7663 298.085 
24.0269 24.7663 298.815 24.0269 24.7663 299.539 24.0269 24.7663 300.262 
24.027 24.7663 302.238 24.0269 24.7663 301.437 24.0269 24.7663 303.424 
24.027 24.7663 304.664 24.0269 24.7663 305.788 24.0269 24.7663 306.592 
24.027 24.7663 307.829 24.0269 24.7663 308.926 24.0269 24.7663 309.709 
24.0269 24.7663 311.235 24.0269 24.7663 310.477 24.0269 24.7663 312.721 
24.0269 24.7663 311.981 24.0269 24.7663 314.193 24.0269 24.7663 313.458 
24.0269 24.7663 314.985 24.0269 24.7663 315.789 
POINT_DATA 326
FIELD FieldData 11
scale 1 326 float
4.43895 4.44308 4.44442 4.44784 4.45169 4.45674 4.46163 4.46291 4.46833 
4.47315 0.536642 4.48119 0.554304 0.585106 0.597618 0.605476 0.625811 0.617824 
0.638457 0.666557 0.651818 0.679647 0.696104 0.712791 0.728375 0.748175 0.765885 
0.782394 0.818248 0.801742 0.836743 0.862776 0.85059 0.874156 0.903959 0.891186 
0.918277 0.934297 0.951372 0.96926 0.996106 0.980149 1.01162 1.02604 1.04092 
1.05618 1.07116 1.10471 1.08631 1.12166 1.13707 1.15292 1.1777 1.16825 
1.19278 1.20626 1.21742 1.22986 1.2407 1.25039 1.26885 1.25876 1.29174 
1.3235 1.35389 1.38444 1.41588 1.44488 1.46932 1.49293 1.50792 1.52027 
1.53445 1.56548 1.55344 1.57535 1.58701 1.59877 1.61041 1.61963 1.63012 
1.6445 1.63795 1.65607 1.67446 1.66773 1.68679 1.67984 1.69308 1.71222 
1.70292 1.7203 1.73 1.74177 1.75228 1.76458 1.77332 1.78017 1.78764 
1.80053 1.81166 1.8223 1.83503 1.84607 1.85711 1.87142 1.88569 1.89887 
1.91695 1.9277 1.93872 1.95279 1.96599 1.98099 2.02029 1.99972 2.04056 
2.06187 2.07972 2.09765 2.10817 2.12506 2.13546 2.14526 2.16175 2.17762 
2.19298 2.2092 2.22342 2.23961 2.26042 2.25188 2.27377 2.29289 2.28564 
2.30328 2.31458 2.32126 2.33255 2.35085 2.34357 2.35815 2.36612 2.3721 
2.3806 2.39583 2.39077 2.40213 2.40688 2.41709 2.41055 2.44147 2.49746 
2.52777 2.55971 2.61888 2.67015 2.72465 2.77802 2.83548 2.89789 2.95171 
3.01323 3.06298 3.10854 3.13508 3.1587 3.21994 3.18535 3.26663 3.2349 
3.28163 3.31453 3.36383 3.33062 3.38206 3.40526 3.44618 3.4296 3.4799 
3.46384 3.49324 3.5047 3.54107 3.55331 3.57039 3.59439 3.58365 3.61792 
3.60429 3.62409 3.64277 3.64451 3.66631 3.6815 3.68814 3.69682 3.70475 
3.71607 3.70997 3.73147 3.72099 3.73552 3.74375 3.74762 3.75331 3.76162 
3.76756 3.77562 3.77332 3.78682 3.78466 3.79784 3.79545 3.81051 3.80239 
3.81667 3.82453 3.81509 3.8328 3.82556 3.84216 3.83741 3.84605 3.85216 
3.86708 3.86079 3.87206 3.87543 3.88184 3.88945 3.88531 3.89723 3.89718 
3.90486 3.9061 3.91241 3.91419 3.91426 3.92753 3.92724 3.92319 3.93534 
3.93464 3.94286 3.94506 3.94875 3.94724 3.95872 3.95462 3.96491 3.97192 
3.9652 3.97743 3.98719 3.99149 3.99237 3.99091 3.99811 3.99912 4.00617 
4.00795 4.00987 4.01404 4.02847 4.02819 4.03077 4.03728 4.03815 4.04673 
4.06015 4.05703 4.0637 4.06569 4.07346 4.07567 4.08423 4.08161 4.08983 
4.09761 4.10758 4.13206 4.1187 4.12719 4.12819 4.13724 4.14806 4.1502 
4.16025 4.17465 4.17534 4.16932 4.1971 4.19124 4.20187 4.19044 4.21068 
4.21661 4.22415 4.23808 4.25591 4.26095 4.27954 4.2745 4.27753 4.28861 
4.30044 4.31288 4.31977 4.34526 4.33567 4.36189 4.37678 4.39254 4.4033 
4.41998 4.43306 4.45372 4.47274 4.45586 4.48943 4.4846 4.51792 4.505 
4.53166 4.54479 
hevec1 3 326 float
-0.707107 -0.707107 3.65775e-07 -0.707107 -0.707107 3.35668e-07 -0.707107 -0.707107 2.0266e-07 
-0.707107 -0.707107 1.2433e-07 -0.707107 -0.707107 -3.23766e-08 -0.707107 -0.707107 -1.30718e-07 
-0.707107 -0.707107 -9.46892e-08 -0.707107 -0.707107 -2.52903e-07 -0.707107 -0.707107 8.53184e-09 
-0.707107 -0.707107 1.65291e-08 -0.707107 -0.707107 -5.06359e-08 -0.707107 -0.707107 1.96811e-08 
-0.707107 -0.707107 2.93326e-06 -0.707107 -0.707107 1.29455e-09 -0.707107 -0.707107 7.21703e-09 
-0.707107 -0.707107 3.64517e-09 -0.707107 -0.707107 1.80194e-07 -0.707107 -0.707107 1.4423e-07 
-0.707107 -0.707107 4.23049e-08 -0.707107 -0.707107 -5.93696e-09 -0.707107 -0.707107 1.56769e-08 
-0.707107 -0.707107 2.67886e-10 -0.707107 -0.707107 1.02918e-07 -0.707107 -0.707107 -1.44105e-08 
-0.707107 -0.707107 -8.64419e-10 -0.707107 -0.707107 8.88198e-10 -0.707107 -0.707107 6.90892e-12 
-0.707107 -0.707107 -2.47842e-10 -0.707107 -0.707107 -3.85523e-10 -0.707107 -0.707107 -8.15211e-13 
-0.707107 -0.707107 -2.11433e-10 -0.707107 -0.707107 -9.28049e-10 -0.707107 -0.707107 -1.51303e-09 
-0.707107 -0.707107 -2.41838e-10 -0.707107 -0.707107 -5.28266e-10 -0.707107 -0.707107 -4.53765e-10 
-0.707107 -0.707107 -1.27009e-09 -0.707107 -0.707107 -3.23004e-08 -0.707107 -0.707107 5.94436e-10 
-0.707107 -0.707107 4.66145e-09 -0.707107 -0.707107 -1.87218e-07 -0.707107 -0.707107 2.925e-10 
-0.707107 -0.707107 -2.66189e-09 -0.707107 -0.707107 5.61106e-07 -0.707107 -0.707107 -2.49815e-08 
-0.707107 -0.707107 -2.18938e-08 -0.707107 -0.707107 6.28728e-09 -0.707107 -0.707107 -7.65093e-09 
-0.707107 -0.707107 2.36446e-09 -0.707107 -0.707107 3.71034e-09 -0.707107 -0.707107 2.71939e-08 
-0.707107 -0.707107 -2.46682e-10 -0.707107 -0.707107 5.225e-11 -0.707107 -0.707107 -2.30271e-09 
-0.707107 -0.707107 1.92897e-10 -0.707107 -0.707107 7.21575e-08 -0.707107 -0.707107 -5.94954e-10 
-0.707107 -0.707107 -7.61901e-08 -0.707107 -0.707107 -1.57735e-10 -0.707107 -0.707107 -2.85962e-08 
-0.707107 -0.707107 2.0214e-08 -0.707107 -0.707107 1.24877e-08 -0.707107 -0.707107 -1.04577e-08 
-0.707107 -0.707107 1.61193e-09 -0.707107 -0.707107 3.9815e-09 -0.707107 -0.707107 6.05668e-08 
-0.707107 -0.707107 1.1621e-08 -0.707107 -0.707107 2.03186e-09 -0.707107 -0.707107 -1.06493e-08 
-0.707107 -0.707107 1.46136e-10 -0.707107 -0.707107 4.44703e-07 -0.707107 -0.707107 5.54533e-07 
-0.707107 -0.707107 -5.25212e-09 -0.707107 -0.707107 5.86013e-08 -0.707107 -0.707107 3.84144e-08 
-0.707107 -0.707107 4.79423e-08 -0.707107 -0.707107 -7.6032e-10 -0.707107 -0.707107 -3.56184e-10 
-0.707107 -0.707107 5.20129e-09 -0.707107 -0.707107 1.10833e-08 -0.707107 -0.707107 5.88023e-09 
-0.707107 -0.707107 -1.92495e-10 -0.707107 -0.707107 3.04136e-09 -0.707107 -0.707107 -1.17606e-11 
-0.707107 -0.707107 4.12925e-11 -0.707107 -0.707107 4.44575e-11 -0.707107 -0.707107 2.68008e-11 
-0.707107 -0.707107 6.30628e-11 -0.707107 -0.707107 2.89842e-11 -0.707107 -0.707107 -1.08974e-08 
-0.707107 -0.707107 -6.69084e-09 -0.707107 -0.707107 5.25276e-08 -0.707107 -0.707107 -1.62314e-08 
-0.707107 -0.707107 5.05949e-10 -0.707107 -0.707107 1.81606e-08 -0.707107 -0.707107 -5.58407e-10 
-0.707107 -0.707107 -1.36006e-07 -0.707107 -0.707107 -1.35884e-07 -0.707107 -0.707107 4.45315e-11 
-0.707107 -0.707107 2.32893e-07 -0.707107 -0.707107 1.41209e-08 -0.707107 -0.707107 8.87206e-08 
-0.707107 -0.707107 3.08052e-07 -0.707107 -0.707107 4.76455e-07 -0.707107 -0.707107 -2.40428e-10 
-0.707107 -0.707107 1.05585e-08 -0.707107 -0.707107 -3.32803e-08 -0.707107 -0.707107 4.56135e-07 
-0.707107 -0.707107 -2.22667e-07 -0.707107 -0.707107 2.20024e-08 -0.707107 -0.707107 1.84768e-08 
-0.707107 -0.707107 -4.33524e-07 -0.707107 -0.707107 -3.32935e-07 -0.707107 -0.707107 -7.46202e-09 
-0.707107 -0.707107 -2.21393e-10 -0.707107 -0.707107 2.07506e-09 -0.707107 -0.707107 2.88893e-10 
-0.707107 -0.707107 -1.08197e-07 -0.707107 -0.707107 -2.78651e-09 -0.707107 -0.707107 -9.16063e-11 
-0.707107 -0.707107 -3.20075e-08 -0.707107 -0.707107 -1.05399e-09 -0.707107 -0.707107 7.68542e-11 
-0.707107 -0.707107 1.87921e-10 -0.707107 -0.707107 -5.87766e-11 -0.707107 -0.707107 -1.34796e-08 
-0.707107 -0.707107 -2.88432e-12 -0.707107 -0.707107 -1.35359e-08 -0.707107 -0.707107 9.9213e-09 
-0.707107 -0.707107 4.12296e-08 -0.707107 -0.707107 -7.45177e-11 -0.707107 -0.707107 -5.7503e-10 
-0.707107 -0.707107 1.73866e-09 -0.707107 -0.707107 9.16512e-09 -0.707107 -0.707107 2.12426e-08 
-0.707107 -0.707107 -6.05974e-09 -0.707107 -0.707107 -2.61225e-08 -0.707107 -0.707107 9.11615e-09 
-0.707107 -0.707107 -5.30229e-11 -0.707107 -0.707107 -3.10585e-09 -0.707107 -0.707107 6.02269e-10 
-0.707107 -0.707107 -2.27958e-09 -0.707107 -0.707107 -1.39821e-09 -0.707107 -0.707107 9.84241e-11 
-0.707107 -0.707107 -9.06353e-12 -0.707107 -0.707107 -1.13029e-11 -0.707107 -0.707107 4.04654e-10 
-0.707107 -0.707107 -1.44783e-11 -0.707107 -0.707107 -8.55685e-09 -0.707107 -0.707107 -1.92395e-09 
-0.707107 -0.707107 -1.53726e-09 -0.707107 -0.707107 -1.86563e-09 -0.707107 -0.707107 -4.20856e-10 
-0.707107 -0.707107 1.7017e-08 -0.707107 -0.707107 2.24101e-10 -0.707107 -0.707107 2.23935e-08 
-0.707107 -0.707107 -1.76758e-07 -0.707107 -0.707107 -1.81843e-10 -0.707107 -0.707107 2.59747e-08 
-0.707107 -0.707107 -1.02197e-08 -0.707107 -0.707107 -2.48386e-08 -0.707107 -0.707107 5.45397e-09 
-0.707107 -0.707107 7.03733e-09 -0.707107 -0.707107 -3.0378e-09 -0.707107 -0.707107 -5.49252e-08 
-0.707107 -0.707107 -2.58965e-07 -0.707107 -0.707107 -5.41676e-08 -0.707107 -0.707107 1.82604e-07 
-0.707107 -0.707107 3.1924e-11 -0.707107 -0.707107 1.61186e-08 -0.707107 -0.707107 -5.80447e-08 
-0.707107 -0.707107 -2.80727e-08 -0.707107 -0.707107 -1.92957e-07 -0.707107 -0.707107 -3.09135e-08 
-0.707107 -0.707107 -1.4463e-08 -0.707107 -0.707107 6.43818e-08 -0.707107 -0.707107 -8.27594e-08 
-0.707107 -0.707107 8.70371e-08 -0.707107 -0.707107 3.5905e-09 -0.707107 -0.707107 3.6559e-09 
-0.707107 -0.707107 -1.90449e-08 -0.707107 -0.707107 3.75075e-09 -0.707107 -0.707107 -1.8209e-09 
-0.707107 -0.707107 -3.21412e-08 -0.707107 -0.707107 -7.21705e-10 -0.707107 -0.707107 -2.0907e-07 
-0.707107 -0.707107 -7.14372e-07 -0.707107 -0.707107 -6.24528e-07 -0.707107 -0.707107 -8.79916e-08 
-0.707107 -0.707107 -2.34683e-08 -0.707107 -0.707107 2.79327e-08 -0.707107 -0.707107 9.96808e-10 
-0.707107 -0.707107 -4.20962e-08 -0.707107 -0.707107 1.46483e-10 -0.707107 -0.707107 3.3471e-07 
-0.707107 -0.707107 -4.06713e-08 -0.707107 -0.707107 1.12751e-08 -0.707107 -0.707107 -1.0074e-08 
-0.707107 -0.707107 1.19477e-10 -0.707107 -0.707107 -1.62693e-09 -0.707107 -0.707107 -6.8326e-10 
-0.707107 -0.707107 -2.94225e-08 -0.707107 -0.707107 -1.03487e-08 -0.707107 -0.707107 1.39544e-11 
-0.707107 -0.707107 2.30359e-10 -0.707107 -0.707107 -2.77395e-09 -0.707107 -0.707107 -1.3906e-11 
-0.707107 -0.707107 -9.65122e-11 -0.707107 -0.707107 1.03305e-10 -0.707107 -0.707107 5.51902e-10 
-0.707107 -0.707107 1.44706e-09 -0.707107 -0.707107 -3.7425e-09 -0.707107 -0.707107 -8.1307e-11 
-0.707107 -0.707107 2.29134e-10 -0.707107 -0.707107 -1.67187e-11 -0.707107 -0.707107 -1.23952e-09 
-0.707107 -0.707107 -6.23929e-14 -0.707107 -0.707107 9.14874e-09 -0.707107 -0.707107 -1.67895e-12 
-0.707107 -0.707107 3.40051e-10 -0.707107 -0.707107 8.23788e-09 -0.707107 -0.707107 -8.58969e-09 
-0.707107 -0.707107 3.81292e-11 -0.707107 -0.707107 3.34009e-08 -0.707107 -0.707107 -6.07448e-10 
-0.707107 -0.707107 1.49821e-10 -0.707107 -0.707107 1.14846e-09 -0.707107 -0.707107 -1.22966e-07 
-0.707107 -0.707107 1.14189e-08 -0.707107 -0.707107 1.96214e-08 -0.707107 -0.707107 -9.3819e-09 
-0.707107 -0.707107 4.97178e-10 -0.707107 -0.707107 3.87846e-08 -0.707107 -0.707107 1.0026e-08 
-0.707107 -0.707107 -6.41208e-08 -0.707107 -0.707107 -3.83848e-08 -0.707107 -0.707107 -7.16565e-09 
-0.707107 -0.707107 1.22506e-09 -0.707107 -0.707107 -3.75758e-08 -0.707107 -0.707107 3.70958e-08 
-0.707107 -0.707107 4.43049e-08 -0.707107 -0.707107 2.24771e-08 -0.707107 -0.707107 6.36046e-11 
-0.707107 -0.707107 7.73473e-09 -0.707107 -0.707107 -1.11685e-10 -0.707107 -0.707107 2.53935e-09 
-0.707107 -0.707107 3.02744e-08 -0.707107 -0.707107 8.06019e-08 -0.707107 -0.707107 8.01748e-10 
-0.707107 -0.707107 -3.46078e-10 -0.707107 -0.707107 -2.46632e-09 -0.707107 -0.707107 5.50878e-09 
-0.707107 -0.707107 -2.782e-09 -0.707107 -0.707107 5.84346e-09 -0.707107 -0.707107 8.71851e-09 
-0.707107 -0.707107 8.25257e-08 -0.707107 -0.707107 -3.59217e-08 -0.707107 -0.707107 7.0317e-08 
-0.707107 -0.707107 -1.88686e-08 -0.707107 -0.707107 3.82562e-09 -0.707107 -0.707107 -6.17685e-09 
-0.707107 -0.707107 -1.30929e-07 -0.707107 -0.707107 2.472e-07 -0.707107 -0.707107 -2.49523e-09 
-0.707107 -0.707107 3.07277e-09 -0.707107 -0.707107 -1.82599e-08 -0.707107 -0.707107 -7.69305e-09 
-0.707107 -0.707107 -2.61953e-08 -0.707107 -0.707107 -1.16806e-09 -0.707107 -0.707107 -4.62266e-09 
-0.707107 -0.707107 2.60736e-08 -0.707107 -0.707107 1.87071e-07 -0.707107 -0.707107 2.46887e-07 
-0.707107 -0.707107 1.21325e-08 -0.707107 -0.707107 -8.01243e-09 -0.707107 -0.707107 9.5617e-08 
-0.707107 -0.707107 1.52854e-09 -0.707107 -0.707107 5.27955e-08 -0.707107 -0.707107 5.74497e-10 
-0.707107 -0.707107 9.42653e-09 -0.707107 -0.707107 1.23268e-08 -0.707107 -0.707107 -3.16683e-09 
-0.707107 -0.707107 -1.02493e-09 -0.707107 -0.707107 -1.02504e-09 -0.707107 -0.707107 1.99728e-08 
-0.707107 -0.707107 -6.63989e-09 -0.707107 -0.707107 1.85649e-07 -0.707107 -0.707107 -1.6578e-08 
-0.707107 -0.707107 -1.6446e-08 -0.707107 -0.707107 5.31059e-08 -0.707107 -0.707107 -3.43718e-09 
-0.707107 -0.707107 4.91603e-08 -0.707107 -0.707107 -7.97991e-08 -0.707107 -0.707107 6.73981e-08 
-0.707107 -0.707107 3.84803e-08 -0.707107 -0.707107 6.90397e-09 -0.707107 -0.707107 -5.48689e-09 
-0.707107 -0.707107 3.37551e-09 -0.707107 -0.707107 -3.2069e-09 -0.707107 -0.707107 2.77889e-10 
-0.707107 -0.707107 9.92258e-10 -0.707107 -0.707107 1.19446e-07 -0.707107 -0.707107 1.19481e-09 
-0.707107 -0.707107 9.8119e-09 -0.707107 -0.707107 -6.70407e-08 -0.707107 -0.707107 -2.68378e-09 
-0.707107 -0.707107 -1.48902e-07 -0.707107 -0.707107 1.07085e-08 -0.707107 -0.707107 1.30514e-07 
-0.707107 -0.707107 1.74684e-07 -0.707107 -0.707107 6.00598e-08 -0.707107 -0.707107 -1.79785e-07 
-0.707107 -0.707107 2.99431e-07 -0.707107 -0.707107 -8.57878e-10 -0.707107 -0.707107 -2.33406e-08 
-0.707107 -0.707107 6.71799e-08 -0.707107 -0.707107 -5.02421e-10 -0.707107 -0.707107 2.60708e-08 
-0.707107 -0.707107 -3.63841e-09 -0.707107 -0.707107 -1.32746e-07 -0.707107 -0.707107 7.71808e-08 
-0.707107 -0.707107 4.48236e-09 -0.707107 -0.707107 1.23361e-08 -0.707107 -0.707107 6.48835e-09 
-0.707107 -0.707107 2.03147e-08 -0.707107 -0.707107 2.07578e-08 
hevec0 3 326 float
0.707107 -0.707107 -1.3646e-07 0.707107 -0.707107 -1.25272e-07 0.707107 -0.707107 -7.59997e-08 
0.707107 -0.707107 -4.7013e-08 0.707107 -0.707107 1.29633e-08 0.707107 -0.707107 4.9364e-08 
0.707107 -0.707107 3.60669e-08 0.707107 -0.707107 9.46917e-08 0.707107 -0.707107 -3.88919e-09 
0.707107 -0.707107 -7.5319e-09 0.707107 -0.707107 -7.24468e-08 0.707107 -0.707107 -8.94901e-09 
0.707107 -0.707107 1.2961e-06 0.707107 -0.707107 2.79994e-10 0.707107 -0.707107 3.66424e-08 
0.707107 -0.707107 1.84885e-08 0.707107 -0.707107 -5.77655e-07 0.707107 -0.707107 -4.56308e-07 
0.707107 -0.707107 -2.85353e-09 0.707107 -0.707107 1.92784e-08 0.707107 -0.707107 -5.06237e-08 
0.707107 -0.707107 4.67895e-09 0.707107 -0.707107 -6.02522e-09 0.707107 -0.707107 5.01762e-09 
0.707107 -0.707107 3.71197e-10 0.707107 -0.707107 -1.35708e-08 0.707107 -0.707107 -1.80138e-10 
0.707107 -0.707107 1.84779e-09 0.707107 -0.707107 -1.1855e-09 0.707107 -0.707107 -2.89782e-09 
0.707107 -0.707107 -6.49958e-10 0.707107 -0.707107 6.45311e-09 0.707107 -0.707107 1.05305e-08 
0.707107 -0.707107 1.67016e-09 0.707107 -0.707107 -9.34388e-09 0.707107 -0.707107 -8.02341e-09 
0.707107 -0.707107 -8.05492e-10 0.707107 -0.707107 2.78942e-08 0.707107 -0.707107 -3.76894e-10 
0.707107 -0.707107 2.12601e-08 0.707107 -0.707107 1.22616e-09 0.707107 -0.707107 -8.70804e-09 
0.707107 -0.707107 2.86989e-09 0.707107 -0.707107 -2.01527e-07 0.707107 -0.707107 -1.69752e-09 
0.707107 -0.707107 -1.48827e-09 0.707107 -0.707107 3.22159e-09 0.707107 -0.707107 -1.47284e-09 
0.707107 -0.707107 1.21437e-09 0.707107 -0.707107 -3.21561e-10 0.707107 -0.707107 2.11284e-09 
0.707107 -0.707107 2.59492e-10 0.707107 -0.707107 -1.29471e-07 0.707107 -0.707107 -9.23193e-11 
0.707107 -0.707107 -4.79917e-10 0.707107 -0.707107 8.18343e-08 0.707107 -0.707107 -1.26964e-10 
0.707107 -0.707107 8.25064e-08 0.707107 -0.707107 -8.47009e-09 0.707107 -0.707107 2.51088e-11 
0.707107 -0.707107 -3.48349e-08 0.707107 -0.707107 -1.06012e-08 0.707107 -0.707107 5.50966e-08 
0.707107 -0.707107 3.4683e-11 0.707107 -0.707107 3.1936e-10 0.707107 -0.707107 -6.33925e-08 
0.707107 -0.707107 3.3711e-07 0.707107 -0.707107 2.76079e-09 0.707107 -0.707107 1.11713e-11 
0.707107 -0.707107 2.86821e-09 0.707107 -0.707107 -1.17384e-07 0.707107 -0.707107 -1.4539e-07 
0.707107 -0.707107 1.87883e-08 0.707107 -0.707107 5.19441e-08 0.707107 -0.707107 -3.7349e-08 
0.707107 -0.707107 4.25179e-08 0.707107 -0.707107 6.72426e-10 0.707107 -0.707107 3.15183e-10 
0.707107 -0.707107 1.01056e-08 0.707107 -0.707107 2.4401e-08 0.707107 -0.707107 1.02505e-08 
0.707107 -0.707107 7.90502e-11 0.707107 -0.707107 4.65864e-09 0.707107 -0.707107 -4.08127e-08 
0.707107 -0.707107 -9.84235e-12 0.707107 -0.707107 -4.00377e-11 0.707107 -0.707107 -6.37561e-12 
0.707107 -0.707107 -1.52065e-11 0.707107 -0.707107 -2.66927e-12 0.707107 -0.707107 -3.49767e-08 
0.707107 -0.707107 -2.1455e-08 0.707107 -0.707107 -3.88164e-07 0.707107 -0.707107 -1.71892e-08 
0.707107 -0.707107 7.39647e-09 0.707107 -0.707107 1.75877e-08 0.707107 -0.707107 8.78734e-11 
0.707107 -0.707107 -1.65496e-09 0.707107 -0.707107 -1.65384e-09 0.707107 -0.707107 -4.03241e-10 
0.707107 -0.707107 -7.57829e-08 0.707107 -0.707107 1.26316e-08 0.707107 -0.707107 -2.61504e-08 
0.707107 -0.707107 6.10983e-08 0.707107 -0.707107 -3.01231e-08 0.707107 -0.707107 -3.37808e-10 
0.707107 -0.707107 -1.69832e-07 0.707107 -0.707107 5.84795e-08 0.707107 -0.707107 4.66387e-07 
0.707107 -0.707107 -1.42487e-08 0.707107 -0.707107 1.72617e-11 0.707107 -0.707107 1.39722e-11 
0.707107 -0.707107 2.39441e-08 0.707107 -0.707107 1.84398e-08 0.707107 -0.707107 9.19388e-09 
0.707107 -0.707107 2.77616e-10 0.707107 -0.707107 2.21543e-09 0.707107 -0.707107 -3.44158e-08 
0.707107 -0.707107 2.48529e-07 0.707107 -0.707107 5.0808e-09 0.707107 -0.707107 -7.95606e-10 
0.707107 -0.707107 2.20535e-08 0.707107 -0.707107 1.56996e-09 0.707107 -0.707107 -6.58273e-11 
0.707107 -0.707107 -1.59546e-10 0.707107 -0.707107 9.8834e-10 0.707107 -0.707107 -2.76823e-08 
0.707107 -0.707107 -4.26497e-10 0.707107 -0.707107 4.98221e-08 0.707107 -0.707107 -2.89038e-09 
0.707107 -0.707107 -1.90719e-08 0.707107 -0.707107 7.60893e-11 0.707107 -0.707107 4.3156e-09 
0.707107 -0.707107 5.58422e-11 0.707107 -0.707107 1.67086e-08 0.707107 -0.707107 -1.69613e-08 
0.707107 -0.707107 1.15171e-08 0.707107 -0.707107 5.56835e-08 0.707107 -0.707107 1.10676e-08 
0.707107 -0.707107 4.47562e-11 0.707107 -0.707107 -1.22711e-10 0.707107 -0.707107 1.06578e-09 
0.707107 -0.707107 -9.02136e-11 0.707107 -0.707107 -5.50797e-11 0.707107 -0.707107 -1.02602e-10 
0.707107 -0.707107 4.85556e-10 0.707107 -0.707107 4.33262e-11 0.707107 -0.707107 2.0399e-08 
0.707107 -0.707107 6.16563e-11 0.707107 -0.707107 1.81313e-09 0.707107 -0.707107 -2.35609e-09 
0.707107 -0.707107 -1.88275e-09 0.707107 -0.707107 6.34947e-09 0.707107 -0.707107 -2.00473e-11 
0.707107 -0.707107 -5.70535e-08 0.707107 -0.707107 -1.87476e-08 0.707107 -0.707107 -1.86679e-08 
0.707107 -0.707107 1.6381e-08 0.707107 -0.707107 5.59487e-10 0.707107 -0.707107 -3.79183e-08 
0.707107 -0.707107 3.22157e-09 0.707107 -0.707107 8.25493e-09 0.707107 -0.707107 1.64802e-11 
0.707107 -0.707107 7.95399e-09 0.707107 -0.707107 -3.26089e-09 0.707107 -0.707107 -2.34341e-08 
0.707107 -0.707107 -3.46497e-07 0.707107 -0.707107 1.00076e-08 0.707107 -0.707107 1.28481e-07 
0.707107 -0.707107 -7.68083e-10 0.707107 -0.707107 -1.33842e-07 0.707107 -0.707107 1.53145e-08 
0.707107 -0.707107 -2.97203e-08 0.707107 -0.707107 8.65724e-08 0.707107 -0.707107 -8.7142e-09 
0.707107 -0.707107 -1.31717e-08 0.707107 -0.707107 -1.54142e-07 0.707107 -0.707107 -7.26356e-09 
0.707107 -0.707107 -1.72375e-07 0.707107 -0.707107 -2.58145e-08 0.707107 -0.707107 -1.09726e-08 
0.707107 -0.707107 2.6962e-09 0.707107 -0.707107 -1.12642e-08 0.707107 -0.707107 -2.15874e-11 
0.707107 -0.707107 2.28302e-08 0.707107 -0.707107 -7.69841e-10 0.707107 -0.707107 8.48111e-09 
0.707107 -0.707107 1.84095e-07 0.707107 -0.707107 -4.52858e-07 0.707107 -0.707107 1.74584e-07 
0.707107 -0.707107 -3.28639e-08 0.707107 -0.707107 2.37254e-08 0.707107 -0.707107 7.62883e-10 
0.707107 -0.707107 -4.19779e-08 0.707107 -0.707107 -1.30307e-09 0.707107 -0.707107 -2.70215e-09 
0.707107 -0.707107 3.87702e-08 0.707107 -0.707107 2.62571e-08 0.707107 -0.707107 8.75936e-10 
0.707107 -0.707107 -4.24168e-11 0.707107 -0.707107 1.21705e-08 0.707107 -0.707107 8.22206e-11 
0.707107 -0.707107 1.14163e-08 0.707107 -0.707107 2.32868e-08 0.707107 -0.707107 -7.8298e-11 
0.707107 -0.707107 1.22775e-09 0.707107 -0.707107 -8.04199e-10 0.707107 -0.707107 -5.05105e-11 
0.707107 -0.707107 8.03492e-12 0.707107 -0.707107 -1.67108e-10 0.707107 -0.707107 -1.91781e-08 
0.707107 -0.707107 2.1213e-09 0.707107 -0.707107 1.30575e-09 0.707107 -0.707107 8.31567e-11 
0.707107 -0.707107 -4.84363e-10 0.707107 -0.707107 -2.85424e-11 0.707107 -0.707107 -7.88227e-09 
0.707107 -0.707107 1.08382e-11 0.707107 -0.707107 2.61237e-08 0.707107 -0.707107 -1.41386e-11 
0.707107 -0.707107 -3.65784e-10 0.707107 -0.707107 2.13793e-08 0.707107 -0.707107 1.25428e-08 
0.707107 -0.707107 1.76582e-10 0.707107 -0.707107 -2.93804e-08 0.707107 -0.707107 7.47548e-08 
0.707107 -0.707107 -1.97377e-10 0.707107 -0.707107 2.06439e-08 0.707107 -0.707107 -5.99727e-08 
0.707107 -0.707107 6.22527e-09 0.707107 -0.707107 1.66747e-08 0.707107 -0.707107 -1.17082e-08 
0.707107 -0.707107 -1.12495e-09 0.707107 -0.707107 -4.4381e-08 0.707107 -0.707107 -8.92472e-09 
0.707107 -0.707107 4.18631e-08 0.707107 -0.707107 2.98373e-08 0.707107 -0.707107 9.26649e-09 
0.707107 -0.707107 1.75226e-10 0.707107 -0.707107 -3.12332e-08 0.707107 -0.707107 -1.92607e-08 
0.707107 -0.707107 3.70931e-08 0.707107 -0.707107 -1.29731e-08 0.707107 -0.707107 1.96261e-10 
0.707107 -0.707107 -3.88364e-09 0.707107 -0.707107 5.86381e-09 0.707107 -0.707107 -5.44716e-10 
0.707107 -0.707107 -1.95964e-08 0.707107 -0.707107 1.47528e-08 0.707107 -0.707107 -5.18229e-09 
0.707107 -0.707107 -3.76473e-10 0.707107 -0.707107 5.59325e-09 0.707107 -0.707107 1.9532e-08 
0.707107 -0.707107 6.31234e-09 0.707107 -0.707107 4.73085e-10 0.707107 -0.707107 2.75014e-08 
0.707107 -0.707107 3.81005e-08 0.707107 -0.707107 1.05801e-07 0.707107 -0.707107 -3.66955e-09 
0.707107 -0.707107 3.0274e-08 0.707107 -0.707107 3.73479e-09 0.707107 -0.707107 -4.64933e-09 
0.707107 -0.707107 1.34457e-07 0.707107 -0.707107 4.34495e-07 0.707107 -0.707107 -1.9835e-09 
0.707107 -0.707107 1.37552e-09 0.707107 -0.707107 1.33885e-08 0.707107 -0.707107 -3.09516e-08 