# vtk DataFile Version 3.0
vtk output
ASCII
DATASET POLYDATA
POINTS 353 float
25 25 8.56173 25 25 9.378 25 25 10.1938 
25 25 11.8238 25 25 11.0097 25 25 12.9563 
25 25 15.2201 25 25 14.1506 25 25 16.4071 
24.9999 25 17.423 25 25 18.4052 25 25 19.6001 
25 25 20.6504 25 25 22.9134 25 25 21.7291 
25 25 24.0886 25 25 25.2559 25 25 26.4239 
25 25 28.4408 25 25 27.5685 25 25 29.6078 
25 25 30.7389 25 25 33.1076 25 25 31.9276 
25 25 34.2461 25 25 35.3613 25 25 36.4552 
25 25 37.6006 25 25 38.7816 25 25 39.8833 
25 25 40.8753 25 25 42.1059 25 25 43.2989 
25 25 44.4943 25 25 46.8701 25 25 45.6824 
25 25 47.6582 25 25 48.4353 25 25 49.2082 
25 25 51.3519 25 25 50.0698 25 25 52.2306 
25 25 53.0231 25 25 53.7986 25 25 54.5705 
25 25 55.334 25 25 56.8304 25 25 56.0854 
25 25 57.5673 25 25 58.3036 25 24.9999 59.8464 
25 25 59.0505 25 25 61.0982 25 25 61.92 
25 25 62.6528 25 25 63.3805 25 25 64.6438 
25 25 66.2041 25 25 65.429 25 25 66.9715 
25 25 67.7357 25 25 69.27 25 25 68.5 
25 25 70.4999 25 25 71.2987 25 25 72.0988 
25 25 72.9508 25 25 73.8318 25 25 75.2142 
25 25 76.0184 25 25 77.1961 25 25 78.4265 
25 25 79.4832 25 25 80.2954 25 25 81.4364 
25 25 82.5332 25 25 84.2205 25 25 83.3577 
25 25 85.0509 25 25 87.2927 25 25 86.2681 
25 25 88.1071 24.9999 25 90.3312 25 25 89.2849 
25 25 91.144 25 25 92.2959 25 25 93.5465 
25 25 94.467 25 25 95.2986 25 25 96.527 
25 25 97.7467 25 25 98.8405 25 25 99.6486 
25 25 100.845 25 25 102.022 25 25 103.581 
25 25 102.808 25 25 105.119 25 25 104.35 
25 25 105.896 25 25 107.083 25 25 109.44 
25 25 108.331 25 25 111.137 25 25 110.261 
25 25 112.505 25 25 113.744 25 25 114.982 
25 25 116.219 25 25 117.341 25 25 118.148 
25 25 119.264 25 25 120.564 25 25 121.492 
25 25 122.331 25 25 123.424 25 25 124.236 
25 25 125.344 25 25 126.695 25 25 127.554 
25 25 128.389 25 25 129.625 25 25 130.896 
25 25 131.846 25 25 132.675 24.9999 25 134.728 
25 25 133.903 24.9999 25 135.605 25 25 137.01 
25 25 138.385 25 25 139.204 25 25 140.863 
25.0001 25.0001 140.033 25 25 142.511 25 25 141.69 
25 25 143.318 25.0001 25.0001 144.12 25 25 145.687 
25 25 144.908 24.9999 24.9999 147.219 25 25 146.456 
25 25 148.716 25 25 147.971 25 25 150.191 
25 25 149.455 25 25 150.92 25 25 151.646 
25 25 153.089 25 25 152.368 25 25 153.806 
25 25 154.524 25 25 155.956 25 25 155.24 
25 25 156.673 25 25 157.39 25 25 158.108 
25 25 158.828 25 25 160.277 25 25 159.552 
25 25 161.008 25 25 161.739 25 25 162.474 
25 25 163.211 25 25 164.692 25 25 163.951 
25 25 165.435 25 25 166.179 25 25 167.668 
25 25 166.924 25 25 169.158 25 25 168.413 
25 25 170.647 25 25 169.902 25 25 171.391 
25 25 172.136 25 25 172.881 25 25 173.625 
25 25 175.115 25 25 174.37 25 25 175.86 
25 25 176.605 25 25 177.351 25 25 178.098 
25 25 178.844 25 25 179.592 25 25 180.341 
25 25 181.091 25 25 181.842 25 25 182.596 
25 25 184.112 25 25 183.354 25 25 184.876 
25 25 185.642 25 25 187.192 25 25 186.414 
25 25 187.979 25.0001 25.0001 188.771 25 25 190.389 
25 25 189.577 25 25 192.034 25 25 191.211 
25 25 192.851 25 25 194.167 25 25 196.299 
25 25 195.489 25 25 197.118 25 25 197.943 
25 25 199.602 25 25 198.772 25 25 200.432 
25 25 202.083 25 25 201.259 25 25 202.901 
25 25 203.715 25 25 204.523 25 25 206.715 
25 25 205.91 25 25 208.326 25 25 207.52 
25 25 209.131 25 25 211.242 25 25 210.434 
25 25 212.052 25 25 212.862 25 25 213.669 
25 25 214.969 25 25 217.084 25 25 216.291 
25 25 218.634 25 25 217.864 25 25 220.16 
25 25 219.392 25 25 221.691 25 25 220.924 
25 25 223.238 25 25 222.464 25 25 224.027 
25 25 224.818 25 25 226.411 25 25 225.614 
25 25 227.206 25.0001 25.0001 227.998 25 25 228.785 
25 25.0001 229.572 24.9999 25 230.352 25 25 231.131 
25 25 231.906 25 25 233.452 25 25 232.68 
25 25 234.988 25 25 234.22 25 25 236.515 
25 25 235.753 25 25 237.274 25 25 238.033 
25 25 238.786 25 25 239.539 25 25 241.04 
25 25 240.29 25 25 242.537 25 25 241.789 
25 25 243.284 25 25 244.03 25 25 245.519 
25 25 244.775 25 25 247.005 25 25 246.263 
25 25 248.489 25 25 247.747 25 25 249.232 
25 25 249.974 25 25 250.719 25 25 251.472 
25 24.9999 252.979 25 25 252.226 25 25 254.55 
25 25 253.755 25 25 255.346 25 25 256.141 
25 25 257.729 25 25 256.935 25 25 258.938 
25 25 260.856 25 25 259.744 25 25 262.439 
25 25 261.649 25 25 263.995 25 25 263.214 
25 25 265.535 25 25 264.765 25 25 267.067 
25 25 266.301 25 25 267.83 25 25 268.592 
25 25 269.354 25 25 270.116 25 25 270.879 
25 25 272.409 25 25 271.642 25 25 273.948 
25 25 273.178 25 25 275.492 25 25 274.72 
25 25 276.282 25 25 277.087 25 25 278.734 
25 25 277.911 25 25 280.456 25 25 279.621 
25 25 282.055 25 25 281.26 25 25 282.843 
25 25 284.404 25 25 283.624 25 25 285.174 
25 25 285.938 25 25 286.698 25 25 287.459 
25 25 288.215 25 25 288.971 25 25 289.724 
25 25 290.478 25 25 291.985 25 25 291.231 
25 25 292.737 25 25 293.489 25 25 294.241 
25 25 294.993 25 25 296.497 25 25 295.745 
25 25 298.001 25 25 297.249 25 25 298.753 
25 25 299.506 25 25 301.012 25 25 300.259 
25 25 301.765 25 25 302.519 25 25 304.043 
25 25 303.275 25 25 305.589 25 25 304.815 
25 25 307.137 25 25 306.364 25 25 308.689 
25 25 307.913 25 25 309.465 25 25 311.873 
25 25 310.677 25 25 312.678 25 25 314.731 
25 25 313.926 25 25 315.536 
POINT_DATA 353
FIELD FieldData 10
scale 1 353 float
0.61266 0.626518 0.639783 0.662447 0.650909 0.67836 0.70817 0.694985 0.723427 
0.737878 0.750192 0.764658 0.777659 0.80577 0.789876 0.818094 0.832203 0.847028 
0.869521 0.858848 0.882995 0.897707 0.925649 0.911684 0.938848 0.951734 0.9648 
0.978376 0.99451 1.00673 1.01875 1.03424 1.04922 1.06489 1.09642 1.08028 
1.10624 1.11673 1.1283 1.15689 1.13714 1.16673 1.18178 1.19078 1.20381 
1.21411 1.23605 1.2247 1.24736 1.25881 1.28334 1.27083 1.30396 1.31845 
1.32717 1.33961 1.35958 1.38045 1.37146 1.39541 1.40479 1.42839 1.41854 
1.44504 1.45679 1.46943 1.48322 1.49464 1.51683 1.52774 1.54572 1.56019 
1.57767 1.58895 1.60428 1.61837 1.64402 1.63078 1.6533 1.68366 1.6708 
1.69302 1.72596 1.71206 1.73274 1.7498 1.76704 1.78363 1.78848 1.80854 
1.82321 1.83363 1.84545 1.8651 1.87702 1.89802 1.89179 1.92083 1.91177 
1.92966 1.9476 1.97725 1.9627 2.00703 1.9883 2.0197 2.03481 2.05181 
2.07047 2.08582 2.09467 2.10972 2.13073 2.14019 2.1496 2.16891 2.18194 
2.20111 2.21699 2.23402 2.245 2.25513 2.27733 2.28697 2.29964 2.33472 
2.3214 2.35276 2.36709 2.39152 2.40478 2.42808 2.41844 2.45887 2.44583 
2.4657 2.48164 2.50418 2.49381 2.53527 2.51512 2.56085 2.54128 2.58391 
2.57443 2.59628 2.61376 2.63176 2.62658 2.65083 2.66013 2.67975 2.66953 
2.69252 2.70846 2.72315 2.7338 2.75587 2.74704 2.77064 2.78359 2.79733 
2.80851 2.8317 2.82061 2.84784 2.8579 2.88063 2.87349 2.90193 2.89711 
2.9326 2.92076 2.94261 2.95432 2.97265 2.9859 3.00804 2.99938 3.02001 
3.03745 3.04141 3.05565 3.07112 3.08415 3.09281 3.10511 3.11991 3.12759 
3.15238 3.14072 3.16715 3.17904 3.20062 3.1886 3.21378 3.22901 3.25458 
3.24021 3.27506 3.26801 3.29336 3.31008 3.34804 3.33597 3.36 3.37059 
3.39238 3.37939 3.40611 3.42617 3.41681 3.44209 3.45201 3.45596 3.49129 
3.48365 3.51514 3.50279 3.52889 3.55837 3.54646 3.56706 3.58149 3.58671 
3.60038 3.6402 3.62515 3.66198 3.64125 3.68014 3.66781 3.69855 3.68929 
3.72199 3.70944 3.72883 3.74089 3.76359 3.75094 3.77386 3.7889 3.80226 
3.80467 3.81671 3.81987 3.82554 3.85245 3.838 3.87353 3.86013 3.89026 
3.87593 3.89908 3.90497 3.92364 3.93402 3.9557 3.93982 3.97371 3.96296 
3.98246 3.9912 4.01166 4.00035 4.0273 4.02 4.04092 4.03296 4.04847 
4.06223 4.07185 4.08061 4.09953 4.08834 4.11864 4.10734 4.13046 4.13977 
4.15911 4.15195 4.17055 4.17922 4.1901 4.22098 4.22237 4.22448 4.21994 
4.2517 4.25285 4.27897 4.26226 4.29281 4.3032 4.29964 4.31633 4.322 
4.34725 4.33455 4.36255 4.35449 4.38629 4.37566 4.39215 4.40568 4.42213 
4.41093 4.45635 4.42467 4.46672 4.43911 4.48791 4.48212 4.49378 4.49831 
4.51989 4.51936 4.53445 4.53618 4.54735 4.55839 4.57537 4.59888 4.58878 
4.60191 4.61501 4.61963 4.63535 4.64727 4.6394 4.66965 4.65872 4.67411 
4.68622 4.70514 4.70044 4.71736 4.73022 4.74619 4.73828 4.76628 4.75635 
4.79383 4.78724 4.8172 4.80231 4.82145 4.84901 4.83705 4.86446 4.87867 
4.87481 4.89502 
hevec1 3 353 float
-0.707107 -0.707107 -1.62983e-06 -0.707107 -0.707107 -1.43311e-06 -0.707107 -0.707107 -1.15374e-06 
-0.707107 -0.707107 -8.41668e-07 -0.707107 -0.707107 -9.3162e-07 -0.707107 -0.707107 -6.14661e-08 
-0.707107 -0.707107 -2.24866e-07 -0.707107 -0.707107 -3.97664e-08 -0.707107 -0.707107 7.11102e-08 
-0.707107 -0.707107 5.11145e-07 -0.707107 -0.707107 1.46077e-09 -0.707107 -0.707107 4.56803e-08 
-0.707107 -0.707107 -1.44808e-10 -0.707107 -0.707107 -3.34831e-09 -0.707107 -0.707107 6.04196e-13 
-0.707107 -0.707107 3.52346e-09 -0.707107 -0.707107 2.29054e-09 -0.707107 -0.707107 -1.26026e-08 
-0.707107 -0.707107 -5.47042e-08 -0.707107 -0.707107 -1.11021e-08 -0.707107 -0.707107 -6.53338e-08 
-0.707107 -0.707107 2.2272e-08 -0.707107 -0.707107 1.997e-08 -0.707107 -0.707107 1.85818e-08 
-0.707107 -0.707107 1.97361e-08 -0.707107 -0.707107 -3.40408e-10 -0.707107 -0.707107 3.38648e-11 
-0.707107 -0.707107 1.34351e-07 -0.707107 -0.707107 -1.05638e-08 -0.707107 -0.707107 -9.18909e-09 
-0.707107 -0.707107 -1.03933e-08 -0.707107 -0.707107 1.40339e-09 -0.707107 -0.707107 -1.21562e-07 
-0.707107 -0.707107 -6.7918e-12 -0.707107 -0.707107 -1.71178e-10 -0.707107 -0.707107 -1.33559e-07 
-0.707107 -0.707107 2.86236e-07 -0.707107 -0.707107 2.12048e-08 -0.707107 -0.707107 3.09689e-07 
-0.707107 -0.707107 -2.20958e-08 -0.707107 -0.707107 1.27174e-08 -0.707107 -0.707107 -8.53001e-09 
-0.707107 -0.707107 6.20966e-08 -0.707107 -0.707107 9.69374e-10 -0.707107 -0.707107 -3.37156e-08 
-0.707107 -0.707107 1.14538e-09 -0.707107 -0.707107 -1.68524e-09 -0.707107 -0.707107 2.42274e-08 
-0.707107 -0.707107 -1.38628e-10 -0.707107 -0.707107 3.89768e-09 -0.707107 -0.707107 -1.8626e-07 
-0.707107 -0.707107 3.19524e-10 -0.707107 -0.707107 -5.86369e-09 -0.707107 -0.707107 3.14604e-09 
-0.707107 -0.707107 3.40207e-09 -0.707107 -0.707107 -1.34982e-10 -0.707107 -0.707107 -1.91002e-09 
-0.707107 -0.707107 -1.44077e-09 -0.707107 -0.707107 1.31733e-10 -0.707107 -0.707107 -9.76227e-09 
-0.707107 -0.707107 -5.32489e-11 -0.707107 -0.707107 -1.75081e-10 -0.707107 -0.707107 -3.87155e-08 
-0.707107 -0.707107 1.61296e-10 -0.707107 -0.707107 -1.17883e-09 -0.707107 -0.707107 4.16791e-11 
-0.707107 -0.707107 1.65733e-10 -0.707107 -0.707107 8.14276e-10 -0.707107 -0.707107 1.00299e-07 
-0.707107 -0.707107 1.39784e-10 -0.707107 -0.707107 3.32385e-09 -0.707107 -0.707107 -3.51062e-09 
-0.707107 -0.707107 -5.64652e-10 -0.707107 -0.707107 2.77684e-08 -0.707107 -0.707107 -2.81939e-08 
-0.707107 -0.707107 4.81431e-10 -0.707107 -0.707107 1.47086e-10 -0.707107 -0.707107 1.70389e-08 
-0.707107 -0.707107 -1.5985e-11 -0.707107 -0.707107 -2.65911e-08 -0.707107 -0.707107 -4.21094e-09 
-0.707107 -0.707107 3.5446e-08 -0.707107 -0.707107 -1.47013e-07 -0.707107 -0.707107 -3.96501e-10 
-0.707107 -0.707107 -3.08108e-10 -0.707107 -0.707107 -2.2121e-11 -0.707107 -0.707107 4.58728e-09 
-0.707107 -0.707107 -1.13896e-08 -0.707107 -0.707107 -1.31822e-10 -0.707107 -0.707107 -8.87072e-09 
-0.707107 -0.707107 -1.88045e-09 -0.707107 -0.707107 1.7269e-07 -0.707107 -0.707107 1.09957e-08 
-0.707107 -0.707107 -4.152e-10 -0.707107 -0.707107 3.78467e-10 -0.707107 -0.707107 -2.51816e-11 
-0.707107 -0.707107 2.34023e-12 -0.707107 -0.707107 -1.10396e-07 -0.707107 -0.707107 2.89354e-11 
-0.707107 -0.707107 3.37427e-10 -0.707107 -0.707107 6.88987e-08 -0.707107 -0.707107 3.59613e-11 
-0.707107 -0.707107 -3.02575e-09 -0.707107 -0.707107 -8.10752e-08 -0.707107 -0.707107 -8.51966e-08 
-0.707107 -0.707107 4.19993e-08 -0.707107 -0.707107 4.08485e-09 -0.707107 -0.707107 1.69871e-10 
-0.707107 -0.707107 -2.19334e-10 -0.707107 -0.707107 2.44292e-08 -0.707107 -0.707107 3.02916e-09 
-0.707107 -0.707107 -8.85094e-13 -0.707107 -0.707107 -4.52868e-09 -0.707107 -0.707107 3.33186e-12 
-0.707107 -0.707107 2.82373e-09 -0.707107 -0.707107 9.79488e-08 -0.707107 -0.707107 2.46153e-08 
-0.707107 -0.707107 -8.29115e-08 -0.707107 -0.707107 -1.78796e-08 -0.707107 -0.707107 -8.91606e-10 
-0.707107 -0.707107 1.67117e-08 -0.707107 -0.707107 1.90628e-09 -0.707107 -0.707107 2.19249e-08 
-0.707107 -0.707107 1.49301e-08 -0.707107 -0.707107 1.35297e-08 -0.707107 -0.707107 -3.07361e-08 
-0.707107 -0.707107 9.23038e-09 -0.707107 -0.707107 -8.01179e-08 -0.707107 -0.707107 -1.37306e-08 
-0.707107 -0.707107 -6.27537e-09 -0.707107 -0.707107 5.20279e-08 -0.707107 -0.707107 1.69954e-09 
-0.707107 -0.707107 1.42725e-07 -0.707107 -0.707107 -1.30001e-08 -0.707107 -0.707107 6.98797e-11 
-0.707107 -0.707107 6.38848e-08 -0.707107 -0.707107 1.68281e-07 -0.707107 -0.707107 4.17803e-09 
-0.707107 -0.707107 3.06188e-08 -0.707107 -0.707107 -1.45686e-07 -0.707107 -0.707107 4.83088e-11 
-0.707107 -0.707107 -3.34232e-09 -0.707107 -0.707107 -4.34796e-09 -0.707107 -0.707107 -1.20709e-08 
-0.707107 -0.707107 1.53224e-09 -0.707107 -0.707107 1.34064e-09 -0.707107 -0.707107 2.35723e-08 
-0.707107 -0.707107 -6.746e-11 -0.707107 -0.707107 6.56949e-08 -0.707107 -0.707107 3.55406e-09 
-0.707107 -0.707107 6.90396e-09 -0.707107 -0.707107 1.88365e-11 -0.707107 -0.707107 2.15189e-08 
-0.707107 -0.707107 1.01816e-08 -0.707107 -0.707107 1.70564e-09 -0.707107 -0.707107 -3.00826e-09 
-0.707107 -0.707107 3.16427e-09 -0.707107 -0.707107 4.18623e-09 -0.707107 -0.707107 5.58931e-11 
-0.707107 -0.707107 -2.71159e-08 -0.707107 -0.707107 -2.80232e-08 -0.707107 -0.707107 -7.02335e-10 
-0.707107 -0.707107 8.8027e-09 -0.707107 -0.707107 9.16514e-10 -0.707107 -0.707107 1.03833e-08 
-0.707107 -0.707107 -1.31753e-08 -0.707107 -0.707107 3.03427e-13 -0.707107 -0.707107 1.35781e-08 
-0.707107 -0.707107 5.24622e-10 -0.707107 -0.707107 2.28563e-09 -0.707107 -0.707107 1.44725e-09 
-0.707107 -0.707107 -3.41115e-09 -0.707107 -0.707107 9.71569e-09 -0.707107 -0.707107 -6.14082e-11 
-0.707107 -0.707107 -4.32707e-09 -0.707107 -0.707107 -6.90313e-09 -0.707107 -0.707107 -1.40513e-09 
-0.707107 -0.707107 1.34573e-09 -0.707107 -0.707107 5.27857e-09 -0.707107 -0.707107 1.16976e-10 
-0.707107 -0.707107 2.37397e-08 -0.707107 -0.707107 -4.06913e-10 -0.707107 -0.707107 -1.85436e-10 
-0.707107 -0.707107 1.13279e-10 -0.707107 -0.707107 6.75977e-09 -0.707107 -0.707107 1.05789e-11 
-0.707107 -0.707107 1.76033e-11 -0.707107 -0.707107 7.0651e-09 -0.707107 -0.707107 -4.8438e-09 
-0.707107 -0.707107 -1.552e-10 -0.707107 -0.707107 -3.98421e-09 -0.707107 -0.707107 -4.80191e-09 
-0.707107 -0.707107 9.36184e-11 -0.707107 -0.707107 -7.37181e-10 -0.707107 -0.707107 1.49022e-09 
-0.707107 -0.707107 6.33549e-10 -0.707107 -0.707107 9.29606e-08 -0.707107 -0.707107 1.48007e-09 
-0.707107 -0.707107 3.18025e-09 -0.707107 -0.707107 -1.85545e-11 -0.707107 -0.707107 -1.11757e-10 
-0.707107 -0.707107 5.74831e-08 -0.707107 -0.707107 -1.19396e-09 -0.707107 -0.707107 2.20183e-09 
-0.707107 -0.707107 3.66992e-10 -0.707107 -0.707107 -2.22655e-11 -0.707107 -0.707107 -1.17754e-09 
-0.707107 -0.707107 -1.20057e-09 -0.707107 -0.707107 1.02133e-09 -0.707107 -0.707107 1.43063e-09 
-0.707107 -0.707107 1.82806e-09 -0.707107 -0.707107 2.9036e-09 -0.707107 -0.707107 -4.70284e-10 
-0.707107 -0.707107 4.06371e-09 -0.707107 -0.707107 -8.61729e-11 -0.707107 -0.707107 -3.70153e-10 
-0.707107 -0.707107 5.6751e-10 -0.707107 -0.707107 -2.53674e-10 -0.707107 -0.707107 5.28111e-09 
-0.707107 -0.707107 2.70076e-10 -0.707107 -0.707107 2.38866e-09 -0.707107 -0.707107 -1.99558e-09 
-0.707107 -0.707107 -2.98968e-11 -0.707107 -0.707107 6.22113e-11 -0.707107 -0.707107 6.74603e-10 
-0.707107 -0.707107 -2.65633e-09 -0.707107 -0.707107 7.46337e-10 -0.707107 -0.707107 5.40964e-12 
-0.707107 -0.707107 -1.67705e-10 -0.707107 -0.707107 2.97572e-09 -0.707107 -0.707107 -1.79436e-10 
-0.707107 -0.707107 -1.53595e-10 -0.707107 -0.707107 1.09358e-10 -0.707107 -0.707107 8.05251e-11 
-0.707107 -0.707107 -2.47536e-11 -0.707107 -0.707107 2.12816e-10 -0.707107 -0.707107 7.77102e-11 
-0.707107 -0.707107 5.70178e-11 -0.707107 -0.707107 -1.99892e-09 -0.707107 -0.707107 3.61742e-09 
-0.707107 -0.707107 2.30357e-09 -0.707107 -0.707107 2.1337e-08 -0.707107 -0.707107 3.64968e-10 
-0.707107 -0.707107 1.45897e-07 -0.707107 -0.707107 -4.20426e-08 -0.707107 -0.707107 -3.68182e-09 
-0.707107 -0.707107 -4.58519e-10 -0.707107 -0.707107 5.06603e-12 -0.707107 -0.707107 3.86219e-09 
-0.707107 -0.707107 -1.55227e-09 -0.707107 -0.707107 1.0786e-08 -0.707107 -0.707107 -6.25034e-12 
-0.707107 -0.707107 -3.54487e-09 -0.707107 -0.707107 -8.53933e-10 -0.707107 -0.707107 -8.23899e-10 
-0.707107 -0.707107 -1.81314e-09 -0.707107 -0.707107 1.1098e-10 -0.707107 -0.707107 -8.85846e-12 
-0.707107 -0.707107 6.6816e-09 -0.707107 -0.707107 7.38188e-11 -0.707107 -0.707107 6.15261e-10 
-0.707107 -0.707107 -1.27755e-10 -0.707107 -0.707107 -5.03653e-09 -0.707107 -0.707107 3.17835e-10 
-0.707107 -0.707107 2.80066e-09 -0.707107 -0.707107 -4.80061e-10 -0.707107 -0.707107 1.40504e-08 
-0.707107 -0.707107 -1.02917e-08 -0.707107 -0.707107 6.66253e-10 -0.707107 -0.707107 3.28625e-11 
-0.707107 -0.707107 4.10495e-09 -0.707107 -0.707107 -3.49132e-10 -0.707107 -0.707107 3.70783e-09 
-0.707107 -0.707107 -8.10787e-08 -0.707107 -0.707107 4.31214e-10 -0.707107 -0.707107 6.7882e-12 
-0.707107 -0.707107 3.1497e-09 -0.707107 -0.707107 -4.40687e-11 -0.707107 -0.707107 -9.8979e-10 
-0.707107 -0.707107 -1.67436e-08 -0.707107 -0.707107 1.98737e-09 -0.707107 -0.707107 6.70095e-11 
-0.707107 -0.707107 -6.30266e-10 -0.707107 -0.707107 3.96966e-09 -0.707107 -0.707107 -1.96879e-10 
-0.707107 -0.707107 -6.15915e-10 -0.707107 -0.707107 -1.45607e-10 -0.707107 -0.707107 5.85898e-09 
-0.707107 -0.707107 4.10052e-10 -0.707107 -0.707107 1.55087e-11 -0.707107 -0.707107 6.91365e-10 
-0.707107 -0.707107 -2.42345e-10 -0.707107 -0.707107 2.32653e-09 -0.707107 -0.707107 3.58796e-09 
-0.707107 -0.707107 6.75844e-09 -0.707107 -0.707107 -4.36393e-10 -0.707107 -0.707107 4.41788e-11 
-0.707107 -0.707107 -7.96257e-12 -0.707107 -0.707107 6.46933e-09 -0.707107 -0.707107 -2.27746e-12 
-0.707107 -0.707107 -4.27107e-10 -0.707107 -0.707107 5.70227e-09 -0.707107 -0.707107 4.18777e-09 
-0.707107 -0.707107 1.55262e-08 -0.707107 -0.707107 1.34526e-10 -0.707107 -0.707107 1.77198e-11 
-0.707107 -0.707107 5.0226e-10 -0.707107 -0.707107 -5.71726e-09 -0.707107 -0.707107 1.8289e-11 
-0.707107 -0.707107 1.69187e-10 -0.707107 -0.707107 2.75467e-09 -0.707107 -0.707107 3.56191e-09 
-0.707107 -0.707107 -5.93708e-10 -0.707107 -0.707107 2.03823e-09 -0.707107 -0.707107 5.03076e-10 
-0.707107 -0.707107 -7.85842e-10 -0.707107 -0.707107 1.37461e-09 -0.707107 -0.707107 -1.12172e-10 
-0.707107 -0.707107 7.91807e-10 -0.707107 -0.707107 5.89473e-10 -0.707107 -0.707107 -1.5167e-09 
-0.707107 -0.707107 -1.9088e-09 -0.707107 -0.707107 2.27058e-09 -0.707107 -0.707107 6.26755e-08 
-0.707107 -0.707107 -1.44412e-09 -0.707107 -0.707107 1.49857e-11 -0.707107 -0.707107 -2.69245e-11 
-0.707107 -0.707107 4.18777e-10 -0.707107 -0.707107 6.76123e-10 -0.707107 -0.707107 4.65537e-09 
-0.707107 -0.707107 7.15307e-10 -0.707107 -0.707107 7.08603e-11 -0.707107 -0.707107 -5.92198e-10 
-0.707107 -0.707107 1.98416e-09 -0.707107 -0.707107 1.21059e-11 -0.707107 -0.707107 -4.04778e-10 
-0.707107 -0.707107 -7.10806e-10 -0.707107 -0.707107 -1.11164e-11 -0.707107 -0.707107 -9.1041e-10 
-0.707107 -0.707107 -5.20177e-09 -0.707107 -0.707107 1.51766e-09 -0.707107 -0.707107 1.6716e-09 
-0.707107 -0.707107 6.35762e-09 -0.707107 -0.707107 -3.49221e-09 -0.707107 -0.707107 -1.79431e-08 
-0.707107 -0.707107 -2.28398e-10 -0.707107 -0.707107 -2.33893e-09 -0.707107 -0.707107 6.15421e-11 
-0.707107 -0.707107 -8.12061e-12 -0.707107 -0.707107 4.31817e-10 -0.707107 -0.707107 -3.16587e-09 
-0.707107 -0.707107 7.9635e-11 -0.707107 -0.707107 2.54578e-09 
hevec0 3 353 float
0.707107 -0.707107 -4.25747e-09 0.707107 -0.707107 -3.74434e-09 0.707107 -0.707107 -3.01767e-09 
0.707107 -0.707107 -2.20486e-09 0.707107 -0.707107 -2.43959e-09 0.707107 -0.707107 2.70061e-09 
0.707107 -0.707107 -1.386e-07 0.707107 -0.707107 1.74721e-09 0.707107 -0.707107 2.63984e-08 
0.707107 -0.707107 -6.2392e-08 0.707107 -0.707107 1.73289e-09 0.707107 -0.707107 7.56071e-09 
0.707107 -0.707107 1.54236e-09 0.707107 -0.707107 1.08044e-08 0.707107 -0.707107 6.89855e-12 
0.707107 -0.707107 -1.13801e-08 0.707107 -0.707107 1.44604e-09 0.707107 -0.707107 1.63303e-07 
0.707107 -0.707107 1.65095e-08 0.707107 -0.707107 1.4333e-07 0.707107 -0.707107 1.96723e-08 
0.707107 -0.707107 -4.73007e-10 0.707107 -0.707107 -2.73444e-08 0.707107 -0.707107 -3.94645e-10 
0.707107 -0.707107 -2.70234e-08 0.707107 -0.707107 1.79021e-09 0.707107 -0.707107 1.03405e-09 
0.707107 -0.707107 7.99289e-10 0.707107 -0.707107 -9.45575e-10 0.707107 -0.707107 -8.22665e-10 
0.707107 -0.707107 9.5045e-09 0.707107 -0.707107 7.0714e-10 0.707107 -0.707107 -2.72987e-07 
0.707107 -0.707107 2.92982e-09 0.707107 -0.707107 1.17867e-11 0.707107 -0.707107 3.12032e-07 
0.707107 -0.707107 -3.36868e-08 0.707107 -0.707107 3.60441e-09 0.707107 -0.707107 -3.63786e-08 
0.707107 -0.707107 -2.73715e-08 0.707107 -0.707107 -6.12261e-09 0.707107 -0.707107 -6.59744e-09 
0.707107 -0.707107 -8.80174e-08 0.707107 -0.707107 2.81314e-09 0.707107 -0.707107 -1.00802e-08 
0.707107 -0.707107 -4.32043e-09 0.707107 -0.707107 -2.07019e-10 0.707107 -0.707107 -3.90576e-08 
0.707107 -0.707107 3.58855e-11 0.707107 -0.707107 -8.12056e-09 0.707107 -0.707107 -1.60398e-07 
0.707107 -0.707107 -5.04929e-11 0.707107 -0.707107 -4.12214e-09 0.707107 -0.707107 1.10858e-08 
0.707107 -0.707107 1.19883e-08 0.707107 -0.707107 2.09432e-07 0.707107 -0.707107 1.54708e-08 
0.707107 -0.707107 -4.30501e-09 0.707107 -0.707107 1.07055e-09 0.707107 -0.707107 -4.98943e-09 
0.707107 -0.707107 -1.26284e-09 0.707107 -0.707107 -9.04561e-12 0.707107 -0.707107 -6.25609e-08 
0.707107 -0.707107 2.63389e-10 0.707107 -0.707107 -4.41847e-11 0.707107 -0.707107 3.38537e-10 
0.707107 -0.707107 -2.1837e-10 0.707107 -0.707107 -1.07908e-10 0.707107 -0.707107 -3.48699e-09 
0.707107 -0.707107 -1.10532e-09 0.707107 -0.707107 9.93679e-11 0.707107 -0.707107 -2.60773e-09 
0.707107 -0.707107 2.05539e-09 0.707107 -0.707107 2.75475e-08 0.707107 -0.707107 -7.44828e-08 
0.707107 -0.707107 -7.00674e-10 0.707107 -0.707107 2.3341e-10 0.707107 -0.707107 2.38482e-08 
0.707107 -0.707107 -5.68073e-10 0.707107 -0.707107 -2.42112e-08 0.707107 -0.707107 -7.46984e-08 
0.707107 -0.707107 4.7991e-09 0.707107 -0.707107 8.04589e-08 0.707107 -0.707107 5.74299e-10 
0.707107 -0.707107 3.68813e-10 0.707107 -0.707107 2.36165e-10 0.707107 -0.707107 -4.76027e-08 
0.707107 -0.707107 1.1527e-08 0.707107 -0.707107 1.76681e-09 0.707107 -0.707107 -1.17196e-08 
0.707107 -0.707107 9.23454e-08 0.707107 -0.707107 5.26482e-08 0.707107 -0.707107 -3.4093e-09 
0.707107 -0.707107 2.1249e-10 0.707107 -0.707107 1.60954e-10 0.707107 -0.707107 -1.67176e-12 
0.707107 -0.707107 8.79576e-11 0.707107 -0.707107 1.85312e-08 0.707107 -0.707107 -1.35189e-11 
0.707107 -0.707107 -2.71418e-11 0.707107 -0.707107 6.45771e-08 0.707107 -0.707107 -2.58783e-08 
0.707107 -0.707107 3.79054e-09 0.707107 -0.707107 -1.0289e-07 0.707107 -0.707107 1.00439e-07 
0.707107 -0.707107 -1.37742e-10 0.707107 -0.707107 9.62134e-08 0.707107 -0.707107 4.71148e-11 
0.707107 -0.707107 4.44755e-10 0.707107 -0.707107 9.6784e-09 0.707107 -0.707107 -2.21569e-09 
0.707107 -0.707107 8.61893e-12 0.707107 -0.707107 -5.20505e-09 0.707107 -0.707107 4.3003e-11 
0.707107 -0.707107 7.63557e-10 0.707107 -0.707107 5.75182e-08 0.707107 -0.707107 -1.03959e-09 
0.707107 -0.707107 9.10959e-09 0.707107 -0.707107 -1.86057e-08 0.707107 -0.707107 -1.17653e-08 
0.707107 -0.707107 2.70725e-08 0.707107 -0.707107 -3.62348e-09 0.707107 -0.707107 -1.02662e-07 
0.707107 -0.707107 -6.32107e-09 0.707107 -0.707107 1.05591e-07 0.707107 -0.707107 1.18281e-07 
0.707107 -0.707107 3.10405e-09 0.707107 -0.707107 8.86252e-08 0.707107 -0.707107 -2.84874e-09 
0.707107 -0.707107 -7.48459e-09 0.707107 -0.707107 -2.51439e-08 0.707107 -0.707107 -4.80122e-08 
0.707107 -0.707107 8.60944e-09 0.707107 -0.707107 2.1657e-09 0.707107 -0.707107 3.10709e-11 
0.707107 -0.707107 -1.71073e-08 0.707107 -0.707107 -1.55338e-08 0.707107 -0.707107 2.96439e-09 
0.707107 -0.707107 -2.62666e-08 0.707107 -0.707107 -1.06828e-08 0.707107 -0.707107 -1.3482e-09 
0.707107 -0.707107 -2.48076e-09 0.707107 -0.707107 5.55425e-10 0.707107 -0.707107 -2.22597e-09 
0.707107 -0.707107 5.21652e-09 0.707107 -0.707107 -1.10542e-09 0.707107 -0.707107 -6.29173e-09 
0.707107 -0.707107 1.74897e-11 0.707107 -0.707107 -7.18135e-09 0.707107 -0.707107 7.04308e-08 
0.707107 -0.707107 -3.53284e-09 0.707107 -0.707107 7.75857e-11 0.707107 -0.707107 6.14645e-08 
0.707107 -0.707107 2.26165e-08 0.707107 -0.707107 -2.49956e-10 0.707107 -0.707107 -2.7216e-09 
0.707107 -0.707107 1.12989e-09 0.707107 -0.707107 -5.52423e-09 0.707107 -0.707107 1.37677e-09 
0.707107 -0.707107 -4.38442e-09 0.707107 -0.707107 -4.52879e-09 0.707107 -0.707107 -1.41129e-09 
0.707107 -0.707107 2.09429e-08 0.707107 -0.707107 -2.6036e-08 0.707107 -0.707107 3.51539e-09 
0.707107 -0.707107 -4.94159e-09 0.707107 -0.707107 8.79636e-10 0.707107 -0.707107 -5.25383e-09 
0.707107 -0.707107 1.10163e-10 0.707107 -0.707107 1.40823e-09 0.707107 -0.707107 9.02869e-10 
0.707107 -0.707107 5.64493e-09 0.707107 -0.707107 2.3146e-09 0.707107 -0.707107 1.47584e-11 
0.707107 -0.707107 -6.08186e-09 0.707107 -0.707107 4.85675e-09 0.707107 -0.707107 -4.59762e-09 
0.707107 -0.707107 -4.66594e-09 0.707107 -0.707107 -2.2468e-10 0.707107 -0.707107 -6.51313e-10 
0.707107 -0.707107 -3.87543e-09 0.707107 -0.707107 2.35399e-12 0.707107 -0.707107 3.39755e-09 
0.707107 -0.707107 -1.19837e-10 0.707107 -0.707107 1.07659e-08 0.707107 -0.707107 2.556e-09 
0.707107 -0.707107 4.05587e-13 0.707107 -0.707107 7.85902e-09 0.707107 -0.707107 5.11625e-09 
0.707107 -0.707107 -5.77334e-10 0.707107 -0.707107 8.04843e-09 0.707107 -0.707107 1.10705e-08 
0.707107 -0.707107 1.87298e-10 0.707107 -0.707107 -1.10587e-10 0.707107 -0.707107 1.95816e-09 
0.707107 -0.707107 3.77227e-11 0.707107 -0.707107 2.04972e-08 0.707107 -0.707107 4.34034e-10 
0.707107 -0.707107 9.21356e-10 0.707107 -0.707107 5.90608e-12 0.707107 -0.707107 2.28711e-10 
0.707107 -0.707107 2.09881e-09 0.707107 -0.707107 5.10375e-09 0.707107 -0.707107 4.59939e-09 
0.707107 -0.707107 2.15453e-10 0.707107 -0.707107 -2.04336e-11 0.707107 -0.707107 1.30945e-09 
0.707107 -0.707107 6.08568e-10 0.707107 -0.707107 -1.46274e-11 0.707107 -0.707107 -2.45018e-09 
0.707107 -0.707107 5.34859e-09 0.707107 -0.707107 1.14357e-09 0.707107 -0.707107 8.15501e-11 
0.707107 -0.707107 8.50054e-09 0.707107 -0.707107 1.20268e-10 0.707107 -0.707107 7.96267e-10 
0.707107 -0.707107 1.51233e-09 0.707107 -0.707107 1.76182e-12 0.707107 -0.707107 -7.31364e-09 
0.707107 -0.707107 -1.66079e-10 0.707107 -0.707107 4.28991e-09 0.707107 -0.707107 3.68199e-09 
0.707107 -0.707107 -3.54792e-11 0.707107 -0.707107 -4.94365e-10 0.707107 -0.707107 5.27232e-10 
0.707107 -0.707107 6.92111e-09 0.707107 -0.707107 1.05124e-09 0.707107 -0.707107 4.89269e-12 
0.707107 -0.707107 -3.60384e-10 0.707107 -0.707107 3.2147e-10 0.707107 -0.707107 3.90702e-10 
0.707107 -0.707107 3.39176e-10 0.707107 -0.707107 -2.80214e-10 0.707107 -0.707107 -1.95386e-10 
0.707107 -0.707107 6.44696e-11 0.707107 -0.707107 -1.94422e-10 0.707107 -0.707107 8.91034e-12 
0.707107 -0.707107 2.08695e-12 0.707107 -0.707107 8.08378e-10 0.707107 -0.707107 2.15995e-09 
0.707107 -0.707107 -1.60917e-09 0.707107 -0.707107 -2.77832e-09 0.707107 -0.707107 -2.14133e-10 
0.707107 -0.707107 5.12691e-08 0.707107 -0.707107 5.53998e-08 0.707107 -0.707107 1.47723e-09 
0.707107 -0.707107 -4.7922e-10 0.707107 -0.707107 -1.72179e-11 0.707107 -0.707107 -9.37633e-09 
0.707107 -0.707107 -3.38113e-09 0.707107 -0.707107 6.20519e-09 0.707107 -0.707107 -9.83081e-11 
0.707107 -0.707107 9.18427e-09 0.707107 -0.707107 2.04361e-09 0.707107 -0.707107 2.32696e-09 
0.707107 -0.707107 -3.39603e-09 0.707107 -0.707107 2.981e-10 0.707107 -0.707107 -3.69563e-11 
0.707107 -0.707107 4.04409e-09 0.707107 -0.707107 4.40226e-10 0.707107 -0.707107 2.76298e-10 
0.707107 -0.707107 -2.35329e-11 0.707107 -0.707107 -4.19809e-09 0.707107 -0.707107 3.54043e-11 
0.707107 -0.707107 2.31029e-09 0.707107 -0.707107 -6.9377e-11 0.707107 -0.707107 9.53612e-09 
0.707107 -0.707107 -5.18785e-09 0.707107 -0.707107 6.08421e-10 0.707107 -0.707107 1.03361e-11 
0.707107 -0.707107 4.08112e-09 0.707107 -0.707107 -3.62087e-11 0.707107 -0.707107 -2.21575e-09 
0.707107 -0.707107 -9.82136e-08 0.707107 -0.707107 2.94418e-12 0.707107 -0.707107 4.12046e-11 
0.707107 -0.707107 8.50346e-10 0.707107 -0.707107 -3.86813e-11 0.707107 -0.707107 3.31429e-10 
0.707107 -0.707107 -1.36468e-09 0.707107 -0.707107 -6.74499e-10 0.707107 -0.707107 -1.77181e-11 
0.707107 -0.707107 -6.02579e-10 0.707107 -0.707107 1.62676e-09 0.707107 -0.707107 7.10964e-11 
0.707107 -0.707107 1.84167e-10 0.707107 -0.707107 -2.74249e-09 0.707107 -0.707107 5.09123e-09 
0.707107 -0.707107 9.76794e-10 0.707107 -0.707107 1.52346e-11 0.707107 -0.707107 -7.35384e-11 
0.707107 -0.707107 6.19286e-11 0.707107 -0.707107 5.22974e-09 0.707107 -0.707107 8.04475e-09 
0.707107 -0.707107 2.84671e-09 0.707107 -0.707107 -3.406e-10 0.707107 -0.707107 -8.31321e-11 
0.707107 -0.707107 -1.51786e-11 0.707107 -0.707107 2.05841e-08 0.707107 -0.707107 -6.66393e-11 
0.707107 -0.707107 -2.31356e-09 0.707107 -0.707107 1.35087e-08 0.707107 -0.707107 -1.56003e-09 
0.707107 -0.707107 1.67491e-08 0.707107 -0.707107 9.48338e-11 0.707107 -0.707107 -2.72548e-11 
0.707107 -0.707107 7.85998e-10 0.707107 -0.707107 -4.10536e-09 0.707107 -0.707107 -3.84252e-12 
0.707107 -0.707107 -2.97503e-10 0.707107 -0.707107 -2.10295e-09 0.707107 -0.707107 -3.14847e-09 
0.707107 -0.707107 4.94135e-10 0.707107 -0.707107 -1.26917e-09 0.707107 -0.707107 3.04125e-09 
0.707107 -0.707107 1.00137e-10 0.707107 -0.707107 1.98138e-09 0.707107 -0.707107 1.21139e-09 
0.707107 -0.707107 -7.1328e-10 0.707107 -0.707107 3.03963e-10 0.707107 -0.707107 4.86912e-10 
0.707107 -0.707107 -2.12202e-09 0.707107 -0.707107 -2.0153e-10 0.707107 -0.707107 5.33865e-08 