# vtk DataFile Version 4.0
vtk output
ASCII
DATASET POLYDATA
FIELD FieldData 5
irad 1 1 float
1.7 
srad 1 1 float
1.2 
spacing 3 1 float
0.521484 0.521484 0.5 
liveth 1 1 float
-15 
seedth 1 1 float
-45 
POINTS 8150 float
40.513 -143.074 -282.651 40.6512 -142.341 -281.722 39.9366 -141.393 -281.687 
39.2964 -140.409 -281.897 38.6347 -139.418 -282.056 47.7103 -153.196 -280.734 
42.3708 -145.072 -281.268 41.4237 -142.533 -280.845 61.0716 -139.769 -280.622 
46.9948 -152.748 -279.9 48.171 -152.61 -279.782 50.4843 -151.891 -279.817 
52.492 -151.532 -280.586 53.5943 -151.345 -280.533 42.3996 -150.833 -279.892 
44.4752 -151.177 -279.978 54.7205 -151.149 -280.476 42.4278 -144.408 -280.288 
62.1791 -144.211 -280.102 62.5053 -143.075 -280.03 62.8016 -141.926 -280.042 
63.9015 -141.494 -280.08 40.6236 -140.621 -280.147 41.7488 -156.2 -279.539 
42.6784 -155.637 -279.062 43.9656 -153.988 -279.16 46.2291 -152.115 -279.25 
49.3378 -152.326 -279.726 47.399 -151.954 -279.115 48.5783 -151.75 -279.019 
49.7461 -151.466 -278.984 41.438 -150.444 -279.438 50.8469 -150.936 -279.126 
52.8945 -150.984 -279.616 42.2704 -149.606 -279.506 43.2281 -150.266 -279.29 
44.4738 -150.17 -279.358 41.4353 -148.763 -279.514 44.6258 -149.063 -279.001 
40.6443 -147.947 -279.205 42.594 -148.452 -279.489 43.7357 -148.25 -279.148 
41.7479 -147.621 -279.466 42.8308 -143.699 -279.416 42.4981 -142.571 -279.243 
40.7235 -139.675 -279.454 39.9777 -157.773 -278.547 40.9224 -157.103 -278.311 
43.3008 -154.793 -278.535 44.3692 -153.033 -278.49 46.6091 -151.231 -278.552 
47.7841 -151.071 -278.426 48.9484 -150.874 -278.279 50.05 -150.527 -278.285 
52.1633 -150.548 -278.758 45.4541 -149.957 -278.632 51.1562 -150.247 -278.217 
53.1677 -150.319 -278.076 45.4731 -148.831 -278.204 44.7132 -147.973 -278.529 
43.8478 -147.164 -278.708 44.8248 -146.859 -278.111 42.1881 -145.37 -278.872 
44.0549 -146.02 -278.443 61.1544 -145.347 -278.802 43.6315 -143.959 -278.56 
61.5056 -144.313 -278.304 42.381 -140.672 -278.733 62.1548 -140.505 -278.669 
40.8754 -138.657 -278.855 41.6795 -156.243 -277.929 42.4827 -155.377 -277.884 
43.7382 -153.883 -278.018 44.1285 -153.097 -277.265 44.8535 -152.292 -277.695 
47.0214 -150.339 -277.891 48.1616 -150.193 -277.69 49.2985 -149.96 -277.562 
50.436 -149.696 -277.435 52.1309 -150.034 -277.648 54.1213 -149.942 -277.469 
55.2444 -149.929 -277.949 56.1234 -149.371 -277.304 57.2782 -149.223 -277.567 
59.7378 -148.296 -277.371 45.5431 -147.73 -277.722 44.9197 -145.756 -277.662 
61.7504 -143.262 -277.85 62.0686 -142.183 -277.465 43.859 -141.407 -277.283 
62.022 -141.007 -277.59 62.1508 -139.83 -277.696 40.9652 -156.243 -276.375 
41.853 -155.657 -276.893 42.5627 -154.738 -276.874 43.284 -153.856 -276.94 
44.4005 -152.187 -276.576 45.2395 -151.44 -277.011 45.6935 -150.544 -276.433 
47.346 -149.517 -277.109 53.0741 -149.661 -277.031 55.0241 -149.567 -276.871 
48.5015 -149.39 -276.886 49.6673 -149.271 -276.649 50.851 -149.184 -276.399 
51.9882 -149.39 -276.674 53.9962 -149.325 -276.361 56.9177 -148.879 -276.493 
58.6763 -148.762 -277.048 45.767 -145.954 -276.864 45.3397 -144.854 -277.007 
61.8182 -141.509 -276.514 43.6686 -140.336 -276.83 61.7905 -140.316 -276.661 
41.8815 -154.884 -275.941 42.6173 -153.889 -275.971 43.5223 -152.99 -276.239 
44.835 -151.276 -275.933 72.8272 -151.48 -275.996 46.0583 -149.6 -275.782 
71.2757 -150.252 -276.076 47.6881 -148.771 -276.258 48.8257 -148.749 -275.932 
51.7728 -148.868 -275.659 52.9113 -149.074 -275.977 55.8053 -149.078 -276.225 
57.5874 -148.438 -275.594 59.3011 -148.051 -276.307 46.0732 -145.09 -276.096 
45.6641 -143.973 -276.264 45.7693 -142.81 -276.005 45.7997 -141.667 -275.648 
61.4855 -140.81 -275.621 39.0502 -157.436 -275.379 40.27 -155.838 -274.781 
41.1407 -155.03 -275.009 41.8707 -154.071 -275.039 43.1984 -152.566 -275.19 
44.4153 -151.008 -274.829 45.2426 -150.365 -275.328 71.1574 -150.612 -274.939 
45.6725 -149.539 -274.685 68.1628 -149.489 -274.755 69.1524 -149.842 -275.306 
70.0945 -150.198 -274.667 46.5132 -148.76 -275.005 50.6488 -148.66 -275.348 
53.8689 -148.667 -275.293 48.4059 -148.179 -274.93 49.5431 -148.392 -275.093 
52.6894 -148.516 -274.948 55.1546 -148.63 -275.394 56.4067 -148.51 -275.436 
58.6552 -148.039 -275.293 59.7702 -147.643 -275.282 61.8435 -142.976 -274.704 
61.497 -142.005 -275.453 60.8457 -141.247 -274.76 45.6392 -140.623 -275.102 
45.6622 -139.526 -274.671 61.1701 -140.069 -274.834 39.4368 -156.671 -274.51 
41.2351 -154.309 -274.064 41.9876 -153.384 -274.049 42.7528 -152.5 -274.105 
72.6961 -152.056 -274.249 43.5695 -151.705 -274.452 71.6587 -151.488 -274.327 
70.6487 -150.969 -273.923 44.8551 -150.162 -274.119 46.0764 -148.836 -273.916 
66.3925 -148.915 -273.879 46.9117 -148.029 -274.092 49.2192 -147.828 -274.112 
50.3817 -148.094 -274.323 51.5276 -148.4 -274.598 52.4067 -147.985 -273.906 
53.5299 -148.141 -274.198 54.6402 -148.219 -274.463 55.8032 -148.125 -274.504 
57.7671 -148.039 -274.498 48.0534 -147.564 -273.945 56.7466 -147.671 -273.946 
63.3628 -146.261 -274.166 59.9622 -142.846 -273.894 60.9458 -143.424 -274.084 
62.7455 -142.691 -273.892 60.7582 -142.404 -274.63 60.0439 -141.675 -273.957 
39.1687 -156.383 -273.383 39.6967 -155.373 -273.055 40.5531 -154.533 -273.109 
41.4535 -153.696 -273.062 42.3682 -152.758 -272.998 43.2311 -151.748 -273.337 
44.0311 -150.898 -273.693 69.632 -150.426 -273.605 68.5502 -149.913 -273.718 
45.438 -149.115 -272.966 67.4932 -149.383 -273.769 46.3463 -148.238 -273.009 
51.2518 -147.793 -273.595 47.205 -147.431 -273.1 48.9256 -147.189 -273.134 
50.0867 -147.469 -273.376 52.1341 -147.256 -272.992 53.2918 -147.403 -273.301 
54.4263 -147.482 -273.607 57.8181 -147.387 -273.499 54.1357 -146.527 -272.969 
55.9333 -146.295 -273.008 61.3504 -145.61 -273.067 62.4089 -145.935 -273.554 
57.0797 -144.628 -273.004 58.1364 -145.235 -272.985 59.1182 -144.629 -273.267 
60.2505 -145.078 -273.094 58.068 -144.056 -273.269 60.0549 -143.986 -273.558 
61.1281 -144.318 -273.313 57.116 -143.4 -272.965 58.1091 -142.818 -273.139 
59.0533 -143.433 -273.423 61.9908 -143.522 -273.608 59.1105 -142.238 -273.418 
58.2084 -141.637 -272.989 59.2327 -141.067 -273.286 64.2728 -141.111 -273.408 
65.2665 -140.475 -273.422 59.3394 -139.909 -272.992 61.2827 -139.545 -273.765 
60.3418 -139.275 -273.109 34.2405 -161.532 -272.437 34.8966 -160.563 -272.198 
38.3408 -156.266 -272.358 39.6803 -154.535 -272.25 40.5543 -153.746 -272.245 
41.4816 -152.949 -272.189 42.8401 -151.773 -272.26 63.2912 -151.285 -272.604 
70.8945 -151.259 -272.777 43.7594 -150.984 -272.56 61.7727 -150.365 -272.197 
68.8144 -150.575 -272.76 44.5749 -150.071 -272.895 59.5455 -149.619 -272.563 
60.6637 -150.005 -272.51 63.6325 -150.148 -272.779 67.8127 -149.945 -272.758 
64.0374 -149.03 -272.78 65.8427 -148.796 -272.839 50.9814 -146.976 -272.768 
63.6587 -147.607 -272.922 47.5554 -146.829 -272.139 48.6908 -146.488 -272.153 
49.8305 -146.697 -272.516 51.8637 -146.375 -272.246 52.9859 -146.52 -272.597 
54.9389 -145.673 -272.495 57.0535 -145.76 -272.641 59.2916 -145.743 -272.889 
60.5261 -145.855 -272.203 55.2677 -144.59 -272.096 56.0433 -145.177 -272.702 
61.1099 -144.824 -272.301 56.1748 -144.007 -272.604 61.8436 -143.913 -272.508 
56.2411 -142.781 -272.428 62.7324 -143.144 -272.724 63.846 -142.77 -272.476 
57.1845 -142.196 -272.753 56.2909 -141.641 -272.124 57.3213 -141.053 -272.433 
58.361 -140.514 -272.677 59.5053 -138.942 -272.317 35.6233 -159.632 -271.905 
36.255 -158.621 -271.744 36.8999 -157.621 -271.575 37.555 -156.603 -271.417 
38.0485 -155.498 -271.449 38.8262 -154.553 -271.44 39.6296 -153.668 -271.439 
74.5413 -152.914 -271.261 40.4868 -152.873 -271.52 41.276 -152.081 -271.437 
62.0901 -152.755 -271.574 63.0972 -152.267 -271.968 64.2263 -152.596 -271.74 
72.5371 -152.041 -271.855 73.688 -152.199 -271.758 42.1448 -151.384 -271.432 
70.3576 -151.328 -271.713 71.4242 -151.671 -271.799 43.1107 -150.794 -271.59 
68.1704 -150.492 -271.766 69.2418 -151.024 -271.746 44.0663 -150.12 -271.766 
67.1731 -149.882 -271.749 36.0005 -149.184 -271.889 37.0703 -149.373 -271.435 
44.9291 -149.326 -271.926 65.0766 -148.762 -271.942 66.1253 -149.366 -271.837 
45.7899 -148.473 -271.995 46.6686 -147.634 -272.056 60.5272 -147.022 -271.652 
61.5522 -147.31 -272.091 50.7319 -146.18 -271.92 57.3863 -146.535 -271.82 
59.5021 -146.414 -271.946 49.6061 -146.046 -271.54 51.6411 -145.759 -271.245 
52.7435 -145.852 -271.636 53.8247 -145.864 -272.081 54.3797 -145.065 -271.487 
60.6981 -145.097 -271.285 61.3136 -144.06 -271.456 55.4881 -143.434 -271.87 
62.0947 -143.143 -271.696 55.5382 -142.346 -271.48 62.9216 -142.333 -271.848 
56.5832 -140.597 -271.639 57.5707 -139.974 -271.973 57.7989 -138.93 -271.392 
58.8551 -138.4 -271.458 59.9323 -137.989 -271.752 39.803 -152.775 -270.597 
40.1949 -151.751 -271.203 69.7598 -151.35 -270.715 70.8768 -151.683 -270.71 
72.0094 -152.008 -270.802 40.1705 -150.682 -270.832 41.1845 -151.113 -270.778 
42.1959 -150.426 -270.848 67.5086 -150.463 -270.77 68.6215 -150.954 -270.769 
38.1472 -149.56 -270.954 39.1482 -150.183 -270.888 43.1904 -149.799 -270.952 
66.4125 -149.985 -270.829 44.1806 -149.183 -271.012 64.3062 -148.891 -271.061 
65.3349 -149.473 -270.974 45.1632 -148.541 -271.001 46.1569 -147.88 -271.018 
63.2466 -148.329 -271.14 62.2071 -147.731 -271.194 47.9561 -146.268 -271.184 
60.1545 -146.101 -271.028 49.4314 -145.589 -270.452 50.5304 -145.676 -270.867 
52.5476 -145.397 -270.554 53.9828 -144.366 -270.527 54.7812 -144.004 -271.22 
61.4889 -143.23 -270.668 62.2187 -142.329 -270.844 55.7404 -141.294 -271.073 
63.2243 -141.713 -270.842 64.3046 -141.255 -270.677 56.1294 -140.297 -270.619 
56.9904 -139.656 -271.012 60.7277 -137.359 -271.112 72.6933 -152.14 -269.861 
69.1592 -151.21 -269.733 71.5205 -151.889 -269.755 44.9714 -150.34 -269.794 
66.797 -150.486 -269.758 67.9877 -150.914 -269.804 40.1004 -149.711 -270.343 
41.2493 -150.039 -270.264 64.5406 -149.587 -270.106 65.6293 -150.071 -269.949 
39.0962 -149.094 -270.394 40.0143 -148.723 -269.709 42.2369 -149.388 -270.307 
[...]
POINT_DATA 8150
FIELD FieldData 12
scale 1 8150 float
0.9 0.9 0.9 0.9 0.9 0.9 0.9 0.9 0.9 
0.9 0.9 0.9 0.9 0.9 0.9 0.9 0.9 0.9 
0.9 0.9 0.9 0.9 0.9 0.9 0.9 0.9 0.9 
0.9 0.9 0.9 0.9 0.9 0.9 0.9 0.9 0.9 
0.9 0.9 0.9 0.9 0.9 0.9 0.9 0.9 0.9 
0.9 0.9 0.9 0.9 0.9 0.9 0.9 0.9 0.9 
0.9 0.9 0.9 0.9 0.9 0.9 0.9 0.9 0.9 
0.9 0.9 0.9 0.9 0.9 0.9 0.9 0.9 0.9 
0.9 0.9 0.9 0.9 0.9 0.9 0.9 0.9 0.9 
0.9 0.9 0.9 0.9 0.9 0.9 0.9 0.9 0.9 
0.9 0.9 0.9 0.9 0.9 0.9 0.9 0.9 0.9 
0.9 0.9 0.9 0.9 0.9 0.9 0.9 0.9 0.9 
0.9 0.9 0.9 0.9 0.9 0.9 0.9 0.9 0.9 
0.9 0.9 0.9 0.9 0.9 0.9 0.9 0.9 0.9 
0.9 0.9 0.9 0.9 0.9 0.9 0.9 0.9 0.9 
0.9 0.9 0.9 0.9 0.9 0.9 0.9 0.9 0.9 
0.9 0.9 0.9 0.9 0.9 0.9 0.9 0.9 0.9 
0.9 0.9 0.9 0.9 0.9 0.9 0.9 0.9 0.9 
0.9 0.9 0.9 0.9 0.9 0.9 0.9 0.9 0.9 
0.9 0.9 0.9 0.9 0.9 0.9 0.9 0.9 0.9 
0.9 0.9 0.9 0.9 0.9 0.9 0.9 0.9 0.9 
0.9 0.9 0.9 0.9 0.9 0.9 0.9 0.9 0.9 
0.9 0.9 0.9 0.9 0.9 0.9 0.9 0.9 0.9 
0.9 0.9 0.9 0.9 0.9 0.9 0.9 0.9 0.9 
0.9 0.9 0.9 0.9 0.9 0.9 0.9 0.9 0.9 
0.9 0.9 0.9 0.9 0.9 0.9 0.9 0.9 0.9 
0.9 0.9 0.9 0.9 0.9 0.9 0.9 0.9 0.9 
0.9 0.9 0.9 0.9 0.9 0.9 0.9 0.9 0.9 
0.9 0.9 0.9 0.9 0.9 0.9 0.9 0.9 0.9 
0.9 0.9 0.9 0.9 0.9 0.9 0.9 0.9 0.9 
0.9 0.9 0.9 0.9 0.9 0.9 0.9 0.9 0.9 
0.9 0.9 0.9 0.9 0.9 0.9 0.9 0.9 0.9 
0.9 0.9 0.9 0.9 0.9 0.9 0.9 0.9 0.9 
0.9 0.9 0.9 0.9 0.9 0.9 0.9 0.9 0.9 
0.9 0.9 0.9 0.9 0.9 0.9 0.9 0.9 0.9 
0.9 0.9 0.9 0.9 0.9 0.9 0.9 0.9 0.9 
0.9 0.9 0.9 0.9 0.9 0.9 0.9 0.9 0.9 
0.9 0.9 0.9 0.9 0.9 0.9 0.9 0.9 0.9 
0.9 0.9 0.9 0.9 0.9 0.9 0.9 0.9 0.9 
0.9 0.9 0.9 0.9 0.9 0.9 0.9 0.9 0.9 
0.9 0.9 0.9 0.9 0.9 0.9 0.9 0.9 0.9 
0.9 0.9 0.9 0.9 0.9 0.9 0.9 0.9 0.9 
0.9 0.9 0.9 0.9 0.9 0.9 0.9 0.9 0.9 
0.9 0.9 0.9 0.9 0.9 0.9 0.9 0.9 0.9 
0.9 0.9 0.9 0.9 0.9 0.9 0.9 0.9 0.9 
0.9 0.9 0.9 0.9 0.9 0.9 0.9 0.9 0.9 
0.9 0.9 0.9 0.9 0.9 0.9 0.9 0.9 0.9 
0.9 0.9 0.9 0.9 0.9 0.9 0.9 0.9 0.9 
0.9 0.9 0.9 0.9 0.9 0.9 0.9 0.9 0.9 
0.9 0.9 0.9 0.9 0.9 0.9 0.9 0.9 0.9 
0.9 0.9 0.9 0.9 0.9 0.9 0.9 0.9 0.9 
0.9 0.9 0.9 0.9 0.9 0.9 0.9 0.9 0.9 
0.9 0.9 0.9 0.9 0.9 0.9 0.9 0.9 0.9 
0.9 0.9 0.9 0.9 0.9 0.9 0.9 0.9 0.9 
0.9 0.9 0.9 0.9 0.9 0.9 0.9 0.9 0.9 
0.9 0.9 0.9 0.9 0.9 0.9 0.9 0.9 0.9 
0.9 0.9 0.9 0.9 0.9 0.9 0.9 0.9 0.9 
0.9 0.9 0.9 0.9 0.9 0.9 0.9 0.9 0.9 
0.9 0.9 0.9 0.9 0.9 0.9 0.9 0.9 0.9 
0.9 0.9 0.9 0.9 0.9 0.9 0.9 0.9 0.9 
0.9 0.9 0.9 0.9 0.9 0.9 0.9 0.9 0.9 
0.9 0.9 0.9 0.9 0.9 0.9 0.9 0.9 0.9 
0.9 0.9 0.9 0.9 0.9 0.9 0.9 0.9 0.9 
0.9 0.9 0.9 0.9 0.9 0.9 0.9 0.9 0.9 
0.9 0.9 0.9 0.9 0.9 0.9 0.9 0.9 0.9 
0.9 0.9 0.9 0.9 0.9 0.9 0.9 0.9 0.9 
0.9 0.9 0.9 0.9 0.9 0.9 0.9 0.9 0.9 
0.9 0.9 0.9 0.9 0.9 0.9 0.9 0.9 0.9 
0.9 0.9 0.9 0.9 0.9 0.9 0.9 0.9 0.9 
0.9 0.9 0.9 0.9 0.9 0.9 0.9 0.9 0.9 
0.9 0.9 0.9 0.9 0.9 0.9 0.9 0.9 0.9 
0.9 0.9 0.9 0.9 0.9 0.9 0.9 0.9 0.9 
0.9 0.9 0.9 0.9 0.9 0.9 0.9 0.9 0.9 
0.9 0.9 0.9 0.9 0.9 0.9 0.9 0.9 0.9 
0.9 0.9 0.9 0.9 0.9 0.9 0.9 0.9 0.9 
0.9 0.9 0.9 0.9 0.9 0.9 0.9 0.9 0.9 
0.9 0.9 0.9 0.9 0.9 0.9 0.9 0.9 0.9 
0.9 0.9 0.9 0.9 0.9 0.9 0.9 0.9 0.9 
0.9 0.9 0.9 0.9 0.9 0.9 0.9 0.9 0.9 
0.9 0.9 0.9 0.9 0.9 0.9 0.9 0.9 0.9 
0.9 0.9 0.9 0.9 0.9 0.9 0.9 0.9 0.9 
0.9 0.9 0.9 0.9 0.9 0.9 0.9 0.9 0.9 
0.9 0.9 0.9 0.9 0.9 0.9 0.9 0.9 0.9 
0.9 0.9 0.9 0.9 0.9 0.9 0.9 0.9 0.9 
0.9 0.9 0.9 0.9 0.9 0.9 0.9 0.9 0.9 
0.9 0.9 0.9 0.9 0.9 0.9 0.9 0.9 0.9 
0.9 0.9 0.9 0.9 0.9 0.9 0.9 0.9 0.9 
0.9 0.9 0.9 0.9 0.9 0.9 0.9 0.9 0.9 
0.9 0.9 0.9 0.9 0.9 0.9 0.9 0.9 0.9 
0.9 0.9 0.9 0.9 0.9 0.9 0.9 0.9 0.9 
0.9 0.9 0.9 0.9 0.9 0.9 0.9 0.9 0.9 
0.9 0.9 0.9 0.9 0.9 0.9 0.9 0.9 0.9 
0.9 0.9 0.9 0.9 0.9 0.9 0.9 0.9 0.9 
0.9 0.9 0.9 0.9 0.9 0.9 0.9 0.9 0.9 
0.9 0.9 0.9 0.9 0.9 0.9 0.9 0.9 0.9 
0.9 0.9 0.9 0.9 0.9 0.9 0.9 0.9 0.9 
0.9 0.9 0.9 0.9 0.9 0.9 0.9 0.9 0.9 
0.9 0.9 0.9 0.9 0.9 0.9 0.9 0.9 0.9 
0.9 0.9 0.9 0.9 0.9 0.9 0.9 0.9 0.9 
0.9 0.9 0.9 0.9 0.9 0.9 0.9 0.9 0.9 
0.9 0.9 0.9 0.9 0.9 0.9 0.9 0.9 0.9 
0.9 0.9 0.9 0.9 0.9 0.9 0.9 0.9 0.9 
0.9 0.9 0.9 0.9 0.9 0.9 0.9 0.9 0.9 
0.9 0.9 0.9 0.9 0.9 0.9 0.9 0.9 0.9 
0.9 0.9 0.9 0.9 0.9 0.9 0.9 0.9 0.9 
0.9 0.9 0.9 0.9 0.9 0.9 0.9 0.9 0.9 
0.9 0.9 0.9 0.9 0.9 0.9 0.9 0.9 0.9 
0.9 0.9 0.9 0.9 0.9 0.9 0.9 0.9 0.9 
0.9 0.9 0.9 0.9 0.9 0.9 0.9 0.9 0.9 
0.9 0.9 0.9 0.9 0.9 0.9 0.9 0.9 0.9 
0.9 0.9 0.9 0.9 0.9 0.9 0.9 0.9 0.9 
0.9 0.9 0.9 0.9 0.9 0.9 0.9 0.9 0.9 
0.9 0.9 0.9 0.9 0.9 0.9 0.9 0.9 0.9 
0.9 0.9 0.9 0.9 0.9 0.9 0.9 0.9 0.9 
0.9 0.9 0.9 0.9 0.9 0.9 0.9 0.9 0.9 
0.9 0.9 0.9 0.9 0.9 0.9 0.9 0.9 0.9 
0.9 0.9 0.9 0.9 0.9 0.9 0.9 0.9 0.9 
0.9 0.9 0.9 0.9 0.9 0.9 0.9 0.9 0.9 
0.9 0.9 0.9 0.9 0.9 0.9 0.9 0.9 0.9 
0.9 0.9 0.9 0.9 0.9 0.9 0.9 0.9 0.9 
0.9 0.9 0.9 0.9 0.9 0.9 0.9 0.9 0.9 
0.9 0.9 0.9 0.9 0.9 0.9 0.9 0.9 0.9 
0.9 0.9 0.9 0.9 0.9 0.9 0.9 0.9 0.9 
0.9 0.9 0.9 0.9 0.9 0.9 0.9 0.9 0.9 
0.9 0.9 0.9 0.9 0.9 0.9 0.9 0.9 0.9 
0.9 0.9 0.9 0.9 0.9 0.9 0.9 0.9 0.9 
0.9 0.9 0.9 0.9 0.9 0.9 0.9 0.9 0.9 
0.9 0.9 0.9 0.9 0.9 0.9 0.9 0.9 0.9 
0.9 0.9 0.9 0.9 0.9 0.9 0.9 0.9 0.9 
0.9 0.9 0.9 0.9 0.9 0.9 0.9 0.9 0.9 
0.9 0.9 0.9 0.9 0.9 0.9 0.9 0.9 0.9 
0.9 0.9 0.9 0.9 0.9 0.9 0.9 0.9 0.9 
0.9 0.9 0.9 0.9 0.9 0.9 0.9 0.9 0.9 
0.9 0.9 0.9 0.9 0.9 0.9 0.9 0.9 0.9 
0.9 0.9 0.9 0.9 0.9 0.9 0.9 0.9 0.9 
0.9 0.9 0.9 0.9 0.9 0.9 0.9 0.9 0.9 
0.9 0.9 0.9 0.9 0.9 0.9 0.9 0.9 0.9 
0.9 0.9 0.9 0.9 0.9 0.9 0.9 0.9 0.9 
0.9 0.9 0.9 0.9 0.9 0.9 0.9 0.9 0.9 
0.9 0.9 0.9 0.9 0.9 0.9 0.9 0.9 0.9 
0.9 0.9 0.9 0.9 0.9 0.9 0.9 0.9 0.9 
0.9 0.9 0.9 0.9 0.9 0.9 0.9 0.9 0.9 
0.9 0.9 0.9 0.9 0.9 0.9 0.9 0.9 0.9 
0.9 0.9 0.9 0.9 0.9 0.9 0.9 0.9 0.9 
0.9 0.9 0.9 0.9 0.9 0.9 0.9 0.9 0.9 
0.9 0.9 0.9 0.9 0.9 0.9 0.9 0.9 0.9 
0.9 0.9 0.9 0.9 0.9 0.9 0.9 0.9 0.9 
0.9 0.9 0.9 0.9 0.9 0.9 0.9 0.9 0.9 
0.9 0.9 0.9 0.9 0.9 0.9 0.9 0.9 0.9 
0.9 0.9 0.9 0.9 0.9 0.9 0.9 0.9 0.9 
0.9 0.9 0.9 0.9 0.9 0.9 0.9 0.9 0.9 
0.9 0.9 0.9 0.9 0.9 0.9 0.9 0.9 0.9 
0.9 0.9 0.9 0.9 0.9 0.9 0.9 0.9 0.9 
0.9 0.9 0.9 0.9 0.9 0.9 0.9 0.9 0.9 
0.9 0.9 0.9 0.9 0.9 0.9 0.9 0.9 0.9 
0.9 0.9 0.9 0.9 0.9 0.9 0.9 0.9 0.9 
0.9 0.9 0.9 0.9 0.9 0.9 0.9 0.9 0.9 
0.9 0.9 0.9 0.9 0.9 0.9 0.9 0.9 0.9 
0.9 0.9 0.9 0.9 0.9 0.9 0.9 0.9 0.9 
0.9 0.9 0.9 0.9 0.9 0.9 0.9 0.9 0.9 
0.9 0.9 0.9 0.9 0.9 0.9 0.9 0.9 0.9 
0.9 0.9 0.9 0.9 0.9 0.9 0.9 0.9 0.9 
0.9 0.9 0.9 0.9 0.9 0.9 0.9 0.9 0.9 
0.9 0.9 0.9 0.9 0.9 0.9 0.9 0.9 0.9 
0.9 0.9 0.9 0.9 0.9 0.9 0.9 0.9 0.9 
0.9 0.9 0.9 0.9 0.9 0.9 0.9 0.9 0.9 
0.9 0.9 0.9 0.9 0.9 0.9 0.9 0.9 0.9 
0.9 0.9 0.9 0.9 0.9 0.9 0.9 0.9 0.9 
0.9 0.9 0.9 0.9 0.9 0.9 0.9 0.9 0.9 
0.9 0.9 0.9 0.9 0.9 0.9 0.9 0.9 0.9 
0.9 0.9 0.9 0.9 0.9 0.9 0.9 0.9 0.9 
0.9 0.9 0.9 0.9 0.9 0.9 0.9 0.9 0.9 
0.9 0.9 0.9 0.9 0.9 0.9 0.9 0.9 0.9 
0.9 0.9 0.9 0.9 0.9 0.9 0.9 0.9 0.9 
0.9 0.9 0.9 0.9 0.9 0.9 0.9 0.9 0.9 
0.9 0.9 0.9 0.9 0.9 0.9 0.9 0.9 0.9 
0.9 0.9 0.9 0.9 0.9 0.9 0.9 0.9 0.9 
0.9 0.9 0.9 0.9 0.9 0.9 0.9 0.9 0.9 
0.9 0.9 0.9 0.9 0.9 0.9 0.9 0.9 0.9 
0.9 0.9 0.9 0.9 0.9 0.9 0.9 0.9 0.9 
0.9 0.9 0.9 0.9 0.9 0.9 0.9 0.9 0.9 
0.9 0.9 0.9 0.9 0.9 0.9 0.9 0.9 0.9 
0.9 0.9 0.9 0.9 0.9 0.9 0.9 0.9 0.9 
0.9 0.9 0.9 0.9 0.9 0.9 0.9 0.9 0.9 
0.9 0.9 0.9 0.9 0.9 0.9 0.9 0.9 0.9 
0.9 0.9 0.9 0.9 0.9 0.9 0.9 0.9 0.9 
0.9 0.9 0.9 0.9 0.9 0.9 0.9 0.9 0.9 
0.9 0.9 0.9 0.9 0.9 0.9 0.9 0.9 0.9 
0.9 0.9 0.9 0.9 0.9 0.9 0.9 0.9 0.9 
0.9 0.9 0.9 0.9 0.9 0.9 0.9 0.9 0.9 
0.9 0.9 0.9 0.9 0.9 0.9 0.9 0.9 0.9 
0.9 0.9 0.9 0.9 0.9 0.9 0.9 0.9 0.9 
0.9 0.9 0.9 0.9 0.9 0.9 0.9 0.9 0.9 
0.9 0.9 0.9 0.9 0.9 0.9 0.9 0.9 0.9 
0.9 0.9 0.9 0.9 0.9 0.9 0.9 0.9 0.9 
0.9 0.9 0.9 0.9 0.9 0.9 0.9 0.9 0.9 
0.9 0.9 0.9 0.9 0.9 0.9 0.9 0.9 0.9 
0.9 0.9 0.9 0.9 0.9 0.9 0.9 0.9 0.9 
0.9 0.9 0.9 0.9 0.9 0.9 0.9 0.9 0.9 
0.9 0.9 0.9 0.9 0.9 0.9 0.9 0.9 0.9 
0.9 0.9 0.9 0.9 0.9 0.9 0.9 0.9 0.9 
0.9 0.9 0.9 0.9 0.9 0.9 0.9 0.9 0.9 
0.9 0.9 0.9 0.9 0.9 0.9 0.9 0.9 0.9 
0.9 0.9 0.9 0.9 0.9 0.9 0.9 0.9 0.9 
0.9 0.9 0.9 0.9 0.9 0.9 0.9 0.9 0.9 
0.9 0.9 0.9 0.9 0.9 0.9 0.9 0.9 0.9 
0.9 0.9 0.9 0.9 0.9 0.9 0.9 0.9 0.9 
0.9 0.9 0.9 0.9 0.9 0.9 0.9 0.9 0.9 
0.9 0.9 0.9 0.9 0.9 0.9 0.9 0.9 0.9 
0.9 0.9 0.9 0.9 0.9 0.9 0.9 0.9 0.9 
0.9 0.9 0.9 0.9 0.9 0.9 0.9 0.9 0.9 
0.9 0.9 0.9 0.9 0.9 0.9 0.9 0.9 0.9 
0.9 0.9 0.9 0.9 0.9 0.9 0.9 0.9 0.9 
0.9 0.9 0.9 0.9 0.9 0.9 0.9 0.9 0.9 
0.9 0.9 0.9 0.9 0.9 0.9 0.9 0.9 0.9 
0.9 0.9 0.9 0.9 0.9 0.9 0.9 0.9 0.9 
0.9 0.9 0.9 0.9 0.9 0.9 0.9 0.9 0.9 
0.9 0.9 0.9 0.9 0.9 0.9 0.9 0.9 0.9 
0.9 0.9 0.9 0.9 0.9 0.9 0.9 0.9 0.9 
0.9 0.9 0.9 0.9 0.9 0.9 0.9 0.9 0.9 
0.9 0.9 0.9 0.9 0.9 0.9 0.9 0.9 0.9 
0.9 0.9 0.9 0.9 0.9 0.9 0.9 0.9 0.9 
0.9 0.9 0.9 0.9 0.9 0.9 0.9 0.9 0.9 
0.9 0.9 0.9 0.9 0.9 0.9 0.9 0.9 0.9 
0.9 0.9 0.9 0.9 0.9 0.9 0.9 0.9 0.9 
0.9 0.9 0.9 0.9 0.9 0.9 0.9 0.9 0.9 
0.9 0.9 0.9 0.9 0.9 0.9 0.9 0.9 0.9 
0.9 0.9 0.9 0.9 0.9 0.9 0.9 0.9 0.9 
0.9 0.9 0.9 0.9 0.9 0.9 0.9 0.9 0.9 
0.9 0.9 0.9 0.9 0.9 0.9 0.9 0.9 0.9 
0.9 0.9 0.9 0.9 0.9 0.9 0.9 0.9 0.9 
0.9 0.9 0.9 0.9 0.9 0.9 0.9 0.9 0.9 
0.9 0.9 0.9 0.9 0.9 0.9 0.9 0.9 0.9 
0.9 0.9 0.9 0.9 0.9 0.9 0.9 0.9 0.9 
0.9 0.9 0.9 0.9 0.9 0.9 0.9 0.9 0.9 
0.9 0.9 0.9 0.9 0.9 0.9 0.9 0.9 0.9 
0.9 0.9 0.9 0.9 0.9 0.9 0.9 0.9 0.9 
0.9 0.9 0.9 0.9 0.9 0.9 0.9 0.9 0.9 
0.9 0.9 0.9 0.9 0.9 0.9 0.9 0.9 0.9 
0.9 0.9 0.9 0.9 0.9 0.9 0.9 0.9 0.9 
0.9 0.9 0.9 0.9 0.9 0.9 0.9 0.9 0.9 
0.9 0.9 0.9 0.9 0.9 0.9 0.9 0.9 0.9 
0.9 0.9 0.9 0.9 0.9 0.9 0.9 0.9 0.9 
0.9 0.9 0.9 0.9 0.9 0.9 0.9 0.9 0.9 
0.9 0.9 0.9 0.9 0.9 0.9 0.9 0.9 0.9 
0.9 0.9 0.9 0.9 0.9 0.9 0.9 0.9 0.9 
0.9 0.9 0.9 0.9 0.9 0.9 0.9 0.9 0.9 
0.9 0.9 0.9 0.9 0.9 0.9 0.9 0.9 0.9 
0.9 0.9 0.9 0.9 0.9 0.9 0.9 0.9 0.9 
0.9 0.9 0.9 0.9 0.9 0.9 0.9 0.9 0.9 
0.9 0.9 0.9 0.9 0.9 0.9 0.9 0.9 0.9 
0.9 0.9 0.9 0.9 0.9 0.9 0.9 0.9 0.9 
0.9 0.9 0.9 0.9 0.9 0.9 0.9 0.9 0.9 
0.9 0.9 0.9 0.9 0.9 0.9 0.9 0.9 0.9 
0.9 0.9 0.9 0.9 0.9 0.9 0.9 0.9 0.9 
0.9 0.9 0.9 0.9 0.9 0.9 0.9 0.9 0.9 
0.9 0.9 0.9 0.9 0.9 0.9 0.9 0.9 0.9 
0.9 0.9 0.9 0.9 0.9 0.9 0.9 0.9 0.9 
0.9 0.9 0.9 0.9 0.9 0.9 0.9 0.9 0.9 
0.9 0.9 0.9 0.9 0.9 0.9 0.9 0.9 0.9 
0.9 0.9 0.9 0.9 0.9 0.9 0.9 0.9 0.9 
0.9 0.9 0.9 0.9 0.9 0.9 0.9 0.9 0.9 
0.9 0.9 0.9 0.9 0.9 0.9 0.9 0.9 0.9 
0.9 0.9 0.9 0.9 0.9 0.9 0.9 0.9 0.9 
0.9 0.9 0.9 0.9 0.9 0.9 0.9 0.9 0.9 
0.9 0.9 0.9 0.9 0.9 0.9 0.9 0.9 0.9 
0.9 0.9 0.9 0.9 0.9 0.9 0.9 0.9 0.9 
0.9 0.9 0.9 0.9 0.9 0.9 0.9 0.9 0.9 
0.9 0.9 0.9 0.9 0.9 0.9 0.9 0.9 0.9 
0.9 0.9 0.9 0.9 0.9 0.9 0.9 0.9 0.9 
0.9 0.9 0.9 0.9 0.9 0.9 0.9 0.9 0.9 
0.9 0.9 0.9 0.9 0.9 0.9 0.9 0.9 0.9 
0.9 0.9 0.9 0.9 0.9 0.9 0.9 0.9 0.9 
0.9 0.9 0.9 0.9 0.9 0.9 0.9 0.9 0.9 
0.9 0.9 0.9 0.9 0.9 0.9 0.9 0.9 0.9 
0.9 0.9 0.9 0.9 0.9 0.9 0.9 0.9 0.9 
0.9 0.9 0.9 0.9 0.9 0.9 0.9 0.9 0.9 
0.9 0.9 0.9 0.9 0.9 0.9 0.9 0.9 0.9 
0.9 0.9 0.9 0.9 0.9 0.9 0.9 0.9 0.9 
0.9 0.9 0.9 0.9 0.9 0.9 0.9 0.9 0.9 
0.9 0.9 0.9 0.9 0.9 0.9 0.9 0.9 0.9 
0.9 0.9 0.9 0.9 0.9 0.9 0.9 0.9 0.9 
0.9 0.9 0.9 0.9 0.9 0.9 0.9 0.9 0.9 
0.9 0.9 0.9 0.9 0.9 0.9 0.9 0.9 0.9 
0.9 0.9 0.9 0.9 0.9 0.9 0.9 0.9 0.9 
0.9 0.9 0.9 0.9 0.9 0.9 0.9 0.9 0.9 
0.9 0.9 0.9 0.9 0.9 0.9 0.9 0.9 0.9 
0.9 0.9 0.9 0.9 0.9 0.9 0.9 0.9 0.9 
0.9 0.9 0.9 0.9 0.9 0.9 0.9 0.9 0.9 
0.9 0.9 0.9 0.9 0.9 0.9 0.9 0.9 0.9 
0.9 0.9 0.9 0.9 0.9 0.9 0.9 0.9 0.9 
0.9 0.9 0.9 0.9 0.9 0.9 0.9 0.9 0.9 
0.9 0.9 0.9 0.9 0.9 0.9 0.9 0.9 0.9 
0.9 0.9 0.9 0.9 0.9 0.9 0.9 0.9 0.9 
0.9 0.9 0.9 0.9 0.9 0.9 0.9 0.9 0.9 
0.9 0.9 0.9 0.9 0.9 0.9 0.9 0.9 0.9 
0.9 0.9 0.9 0.9 0.9 0.9 0.9 0.9 0.9 
0.9 0.9 0.9 0.9 0.9 0.9 0.9 0.9 0.9 
0.9 0.9 0.9 0.9 0.9 0.9 0.9 0.9 0.9 
0.9 0.9 0.9 0.9 0.9 0.9 0.9 0.9 0.9 
0.9 0.9 0.9 0.9 0.9 0.9 0.9 0.9 0.9 
0.9 0.9 0.9 0.9 0.9 0.9 0.9 0.9 0.9 
0.9 0.9 0.9 0.9 0.9 0.9 0.9 0.9 0.9 
0.9 0.9 0.9 0.9 0.9 0.9 0.9 0.9 0.9 
0.9 0.9 0.9 0.9 0.9 0.9 0.9 0.9 0.9 
0.9 0.9 0.9 0.9 0.9 0.9 0.9 0.9 0.9 
0.9 0.9 0.9 0.9 0.9 0.9 0.9 0.9 0.9 
0.9 0.9 0.9 0.9 0.9 0.9 0.9 0.9 0.9 
0.9 0.9 0.9 0.9 0.9 0.9 0.9 0.9 0.9 
0.9 0.9 0.9 0.9 0.9 0.9 0.9 0.9 0.9 
0.9 0.9 0.9 0.9 0.9 0.9 0.9 0.9 0.9 
0.9 0.9 0.9 0.9 0.9 0.9 0.9 0.9 0.9 
0.9 0.9 0.9 0.9 0.9 0.9 0.9 0.9 0.9 
0.9 0.9 0.9 0.9 0.9 0.9 0.9 0.9 0.9 
0.9 0.9 0.9 0.9 0.9 0.9 0.9 0.9 0.9 
0.9 0.9 0.9 0.9 0.9 0.9 0.9 0.9 0.9 
0.9 0.9 0.9 0.9 0.9 0.9 0.9 0.9 0.9 
0.9 0.9 0.9 0.9 0.9 0.9 0.9 0.9 0.9 
0.9 0.9 0.9 0.9 0.9 0.9 0.9 0.9 0.9 
0.9 0.9 0.9 0.9 0.9 0.9 0.9 0.9 0.9 
0.9 0.9 0.9 0.9 0.9 0.9 0.9 0.9 0.9 
0.9 0.9 0.9 0.9 0.9 0.9 0.9 0.9 0.9 
0.9 0.9 0.9 0.9 0.9 0.9 0.9 0.9 0.9 
0.9 0.9 0.9 0.9 0.9 0.9 0.9 0.9 0.9 
0.9 0.9 0.9 0.9 0.9 0.9 0.9 0.9 0.9 
0.9 0.9 0.9 0.9 0.9 0.9 0.9 0.9 0.9 
0.9 0.9 0.9 0.9 0.9 0.9 0.9 0.9 0.9 
0.9 0.9 0.9 0.9 0.9 0.9 0.9 0.9 0.9 
0.9 0.9 0.9 0.9 0.9 0.9 0.9 0.9 0.9 
0.9 0.9 0.9 0.9 0.9 0.9 0.9 0.9 0.9 
0.9 0.9 0.9 0.9 0.9 0.9 0.9 0.9 0.9 
0.9 0.9 0.9 0.9 0.9 0.9 0.9 0.9 0.9 
0.9 0.9 0.9 0.9 0.9 0.9 0.9 0.9 0.9 
0.9 0.9 0.9 0.9 0.9 0.9 0.9 0.9 0.9 
0.9 0.9 0.9 0.9 0.9 0.9 0.9 0.9 0.9 
0.9 0.9 0.9 0.9 0.9 0.9 0.9 0.9 0.9 
0.9 0.9 0.9 0.9 0.9 0.9 0.9 0.9 0.9 
0.9 0.9 0.9 0.9 0.9 0.9 0.9 0.9 0.9 
0.9 0.9 0.9 0.9 0.9 0.9 0.9 0.9 0.9 
0.9 0.9 0.9 0.9 0.9 0.9 0.9 0.9 0.9 
0.9 0.9 0.9 0.9 0.9 0.9 0.9 0.9 0.9 
0.9 0.9 0.9 0.9 0.9 0.9 0.9 0.9 0.9 
0.9 0.9 0.9 0.9 0.9 0.9 0.9 0.9 0.9 
0.9 0.9 0.9 0.9 0.9 0.9 0.9 0.9 0.9 
0.9 0.9 0.9 0.9 0.9 0.9 0.9 0.9 0.9 
0.9 0.9 0.9 0.9 0.9 0.9 0.9 0.9 0.9 
0.9 0.9 0.9 0.9 0.9 0.9 0.9 0.9 0.9 
0.9 0.9 0.9 0.9 0.9 0.9 0.9 0.9 0.9 
0.9 0.9 0.9 0.9 0.9 0.9 0.9 0.9 0.9 
0.9 0.9 0.9 0.9 0.9 0.9 0.9 0.9 0.9 
0.9 0.9 0.9 0.9 0.9 0.9 0.9 0.9 0.9 
0.9 0.9 0.9 0.9 0.9 0.9 0.9 0.9 0.9 
0.9 0.9 0.9 0.9 0.9 0.9 0.9 0.9 0.9 
0.9 0.9 0.9 0.9 0.9 0.9 0.9 0.9 0.9 
0.9 0.9 0.9 0.9 0.9 0.9 0.9 0.9 0.9 
0.9 0.9 0.9 0.9 0.9 0.9 0.9 0.9 0.9 
0.9 0.9 0.9 0.9 0.9 0.9 0.9 0.9 0.9 
0.9 0.9 0.9 0.9 0.9 0.9 0.9 0.9 0.9 
0.9 0.9 0.9 0.9 0.9 0.9 0.9 0.9 0.9 
0.9 0.9 0.9 0.9 0.9 0.9 0.9 0.9 0.9 
0.9 0.9 0.9 0.9 0.9 0.9 0.9 0.9 0.9 
0.9 0.9 0.9 0.9 0.9 0.9 0.9 0.9 0.9 
0.9 0.9 0.9 0.9 0.9 0.9 0.9 0.9 0.9 
0.9 0.9 0.9 0.9 0.9 0.9 0.9 0.9 0.9 
0.9 0.9 0.9 0.9 0.9 0.9 0.9 0.9 0.9 
0.9 0.9 0.9 0.9 0.9 0.9 0.9 0.9 0.9 
0.9 0.9 0.9 0.9 0.9 0.9 0.9 0.9 0.9 
0.9 0.9 0.9 0.9 0.9 0.9 0.9 0.9 0.9 
0.9 0.9 0.9 0.9 0.9 0.9 0.9 0.9 0.9 
0.9 0.9 0.9 0.9 0.9 0.9 0.9 0.9 0.9 
0.9 0.9 0.9 0.9 0.9 0.9 0.9 0.9 0.9 
0.9 0.9 0.9 0.9 0.9 0.9 0.9 0.9 0.9 
0.9 0.9 0.9 0.9 0.9 0.9 0.9 0.9 0.9 
0.9 0.9 0.9 0.9 0.9 0.9 0.9 0.9 0.9 
0.9 0.9 0.9 0.9 0.9 0.9 0.9 0.9 0.9 
0.9 0.9 0.9 0.9 0.9 0.9 0.9 0.9 0.9 
0.9 0.9 0.9 0.9 0.9 0.9 0.9 0.9 0.9 
0.9 0.9 0.9 0.9 0.9 0.9 0.9 0.9 0.9 
0.9 0.9 0.9 0.9 0.9 0.9 0.9 0.9 0.9 
0.9 0.9 0.9 0.9 0.9 0.9 0.9 0.9 0.9 
0.9 0.9 0.9 0.9 0.9 0.9 0.9 0.9 0.9 
0.9 0.9 0.9 0.9 0.9 0.9 0.9 0.9 0.9 
0.9 0.9 0.9 0.9 0.9 0.9 0.9 0.9 0.9 
0.9 0.9 0.9 0.9 0.9 0.9 0.9 0.9 0.9 
0.9 0.9 0.9 0.9 0.9 0.9 0.9 0.9 0.9 
0.9 0.9 0.9 0.9 0.9 0.9 0.9 0.9 0.9 
0.9 0.9 0.9 0.9 0.9 0.9 0.9 0.9 0.9 
0.9 0.9 0.9 0.9 0.9 0.9 0.9 0.9 0.9 
0.9 0.9 0.9 0.9 0.9 0.9 0.9 0.9 0.9 
0.9 0.9 0.9 0.9 0.9 0.9 0.9 0.9 0.9 
0.9 0.9 0.9 0.9 0.9 0.9 0.9 0.9 0.9 
0.9 0.9 0.9 0.9 0.9 0.9 0.9 0.9 0.9 
0.9 0.9 0.9 0.9 0.9 0.9 0.9 0.9 0.9 
0.9 0.9 0.9 0.9 0.9 0.9 0.9 0.9 0.9 
0.9 0.9 0.9 0.9 0.9 0.9 0.9 0.9 0.9 
0.9 0.9 0.9 0.9 0.9 0.9 0.9 0.9 0.9 
0.9 0.9 0.9 0.9 0.9 0.9 0.9 0.9 0.9 
0.9 0.9 0.9 0.9 0.9 0.9 0.9 0.9 0.9 
0.9 0.9 0.9 0.9 0.9 0.9 0.9 0.9 0.9 
0.9 0.9 0.9 0.9 0.9 0.9 0.9 0.9 0.9 
0.9 0.9 0.9 0.9 0.9 0.9 0.9 0.9 0.9 
0.9 0.9 0.9 0.9 0.9 0.9 0.9 0.9 0.9 
0.9 0.9 0.9 0.9 0.9 0.9 0.9 0.9 0.9 
0.9 0.9 0.9 0.9 0.9 0.9 0.9 0.9 0.9 
0.9 0.9 0.9 0.9 0.9 0.9 0.9 0.9 0.9 
0.9 0.9 0.9 0.9 0.9 0.9 0.9 0.9 0.9 
0.9 0.9 0.9 0.9 0.9 0.9 0.9 0.9 0.9 
0.9 0.9 0.9 0.9 0.9 0.9 0.9 0.9 0.9 
0.9 0.9 0.9 0.9 0.9 0.9 0.9 0.9 0.9 
0.9 0.9 0.9 0.9 0.9 0.9 0.9 0.9 0.9 
0.9 0.9 0.9 0.9 0.9 0.9 0.9 0.9 0.9 
0.9 0.9 0.9 0.9 0.9 0.9 0.9 0.9 0.9 
0.9 0.9 0.9 0.9 0.9 0.9 0.9 0.9 0.9 
0.9 0.9 0.9 0.9 0.9 0.9 0.9 0.9 0.9 
0.9 0.9 0.9 0.9 0.9 0.9 0.9 0.9 0.9 
0.9 0.9 0.9 0.9 0.9 0.9 0.9 0.9 0.9 
0.9 0.9 0.9 0.9 0.9 0.9 0.9 0.9 0.9 
0.9 0.9 0.9 0.9 0.9 0.9 0.9 0.9 0.9 
0.9 0.9 0.9 0.9 0.9 0.9 0.9 0.9 0.9 
0.9 0.9 0.9 0.9 0.9 0.9 0.9 0.9 0.9 
0.9 0.9 0.9 0.9 0.9 0.9 0.9 0.9 0.9 
0.9 0.9 0.9 0.9 0.9 0.9 0.9 0.9 0.9 
0.9 0.9 0.9 0.9 0.9 0.9 0.9 0.9 0.9 
0.9 0.9 0.9 0.9 0.9 0.9 0.9 0.9 0.9 
0.9 0.9 0.9 0.9 0.9 0.9 0.9 0.9 0.9 
0.9 0.9 0.9 0.9 0.9 0.9 0.9 0.9 0.9 
0.9 0.9 0.9 0.9 0.9 0.9 0.9 0.9 0.9 
0.9 0.9 0.9 0.9 0.9 0.9 0.9 0.9 0.9 
0.9 0.9 0.9 0.9 0.9 0.9 0.9 0.9 0.9 
0.9 0.9 0.9 0.9 0.9 0.9 0.9 0.9 0.9 
0.9 0.9 0.9 0.9 0.9 0.9 0.9 0.9 0.9 
0.9 0.9 0.9 0.9 0.9 0.9 0.9 0.9 0.9 
0.9 0.9 0.9 0.9 0.9 0.9 0.9 0.9 0.9 
0.9 0.9 0.9 0.9 0.9 0.9 0.9 0.9 0.9 
0.9 0.9 0.9 0.9 0.9 0.9 0.9 0.9 0.9 
0.9 0.9 0.9 0.9 0.9 0.9 0.9 0.9 0.9 
0.9 0.9 0.9 0.9 0.9 0.9 0.9 0.9 0.9 
0.9 0.9 0.9 0.9 0.9 0.9 0.9 0.9 0.9 
0.9 0.9 0.9 0.9 0.9 0.9 0.9 0.9 0.9 
0.9 0.9 0.9 0.9 0.9 0.9 0.9 0.9 0.9 
0.9 0.9 0.9 0.9 0.9 0.9 0.9 0.9 0.9 
0.9 0.9 0.9 0.9 0.9 0.9 0.9 0.9 0.9 
0.9 0.9 0.9 0.9 0.9 0.9 0.9 0.9 0.9 
0.9 0.9 0.9 0.9 0.9 0.9 0.9 0.9 0.9 
0.9 0.9 0.9 0.9 0.9 0.9 0.9 0.9 0.9 
0.9 0.9 0.9 0.9 0.9 0.9 0.9 0.9 0.9 
0.9 0.9 0.9 0.9 0.9 0.9 0.9 0.9 0.9 
0.9 0.9 0.9 0.9 0.9 0.9 0.9 0.9 0.9 
0.9 0.9 0.9 0.9 0.9 0.9 0.9 0.9 0.9 
0.9 0.9 0.9 0.9 0.9 0.9 0.9 0.9 0.9 
0.9 0.9 0.9 0.9 0.9 0.9 0.9 0.9 0.9 
0.9 0.9 0.9 0.9 0.9 0.9 0.9 0.9 0.9 
0.9 0.9 0.9 0.9 0.9 0.9 0.9 0.9 0.9 
0.9 0.9 0.9 0.9 0.9 0.9 0.9 0.9 0.9 
0.9 0.9 0.9 0.9 0.9 0.9 0.9 0.9 0.9 
0.9 0.9 0.9 0.9 0.9 0.9 0.9 0.9 0.9 
0.9 0.9 0.9 0.9 0.9 0.9 0.9 0.9 0.9 
0.9 0.9 0.9 0.9 0.9 0.9 0.9 0.9 0.9 
0.9 0.9 0.9 0.9 0.9 0.9 0.9 0.9 0.9 
0.9 0.9 0.9 0.9 0.9 0.9 0.9 0.9 0.9 
0.9 0.9 0.9 0.9 0.9 0.9 0.9 0.9 0.9 
0.9 0.9 0.9 0.9 0.9 0.9 0.9 0.9 0.9 
0.9 0.9 0.9 0.9 0.9 0.9 0.9 0.9 0.9 
0.9 0.9 0.9 0.9 0.9 0.9 0.9 0.9 0.9 
0.9 0.9 0.9 0.9 0.9 0.9 0.9 0.9 0.9 
0.9 0.9 0.9 0.9 0.9 0.9 0.9 0.9 0.9 
0.9 0.9 0.9 0.9 0.9 0.9 0.9 0.9 0.9 
0.9 0.9 0.9 0.9 0.9 0.9 0.9 0.9 0.9 
0.9 0.9 0.9 0.9 0.9 0.9 0.9 0.9 0.9 
0.9 0.9 0.9 0.9 0.9 0.9 0.9 0.9 0.9 
0.9 0.9 0.9 0.9 0.9 0.9 0.9 0.9 0.9 
0.9 0.9 0.9 0.9 0.9 0.9 0.9 0.9 0.9 
0.9 0.9 0.9 0.9 0.9 0.9 0.9 0.9 0.9 
0.9 0.9 0.9 0.9 0.9 0.9 0.9 0.9 0.9 
0.9 0.9 0.9 0.9 0.9 0.9 0.9 0.9 0.9 
0.9 0.9 0.9 0.9 0.9 0.9 0.9 0.9 0.9 
0.9 0.9 0.9 0.9 0.9 0.9 0.9 0.9 0.9 
0.9 0.9 0.9 0.9 0.9 0.9 0.9 0.9 0.9 
0.9 0.9 0.9 0.9 0.9 0.9 0.9 0.9 0.9 
0.9 0.9 0.9 0.9 0.9 0.9 0.9 0.9 0.9 
0.9 0.9 0.9 0.9 0.9 0.9 0.9 0.9 0.9 
0.9 0.9 0.9 0.9 0.9 0.9 0.9 0.9 0.9 
0.9 0.9 0.9 0.9 0.9 0.9 0.9 0.9 0.9 
0.9 0.9 0.9 0.9 0.9 0.9 0.9 0.9 0.9 
0.9 0.9 0.9 0.9 0.9 0.9 0.9 0.9 0.9 
0.9 0.9 0.9 0.9 0.9 0.9 0.9 0.9 0.9 
0.9 0.9 0.9 0.9 0.9 0.9 0.9 0.9 0.9 
0.9 0.9 0.9 0.9 0.9 0.9 0.9 0.9 0.9 
0.9 0.9 0.9 0.9 0.9 0.9 0.9 0.9 0.9 
0.9 0.9 0.9 0.9 0.9 0.9 0.9 0.9 0.9 
0.9 0.9 0.9 0.9 0.9 0.9 0.9 0.9 0.9 
0.9 0.9 0.9 0.9 0.9 0.9 0.9 0.9 0.9 
0.9 0.9 0.9 0.9 0.9 0.9 0.9 0.9 0.9 
0.9 0.9 0.9 0.9 0.9 0.9 0.9 0.9 0.9 
0.9 0.9 0.9 0.9 0.9 0.9 0.9 0.9 0.9 
0.9 0.9 0.9 0.9 0.9 0.9 0.9 0.9 0.9 
0.9 0.9 0.9 0.9 0.9 0.9 0.9 0.9 0.9 
0.9 0.9 0.9 0.9 0.9 0.9 0.9 0.9 0.9 
0.9 0.9 0.9 0.9 0.9 0.9 0.9 0.9 0.9 
0.9 0.9 0.9 0.9 0.9 0.9 0.9 0.9 0.9 
0.9 0.9 0.9 0.9 0.9 0.9 0.9 0.9 0.9 
0.9 0.9 0.9 0.9 0.9 0.9 0.9 0.9 0.9 
0.9 0.9 0.9 0.9 0.9 0.9 0.9 0.9 0.9 
0.9 0.9 0.9 0.9 0.9 0.9 0.9 0.9 0.9 
0.9 0.9 0.9 0.9 0.9 0.9 0.9 0.9 0.9 
0.9 0.9 0.9 0.9 0.9 0.9 0.9 0.9 0.9 
0.9 0.9 0.9 0.9 0.9 0.9 0.9 0.9 0.9 
0.9 0.9 0.9 0.9 0.9 0.9 0.9 0.9 0.9 
0.9 0.9 0.9 0.9 0.9 0.9 0.9 0.9 0.9 
0.9 0.9 0.9 0.9 0.9 0.9 0.9 0.9 0.9 
0.9 0.9 0.9 0.9 0.9 0.9 0.9 0.9 0.9 
0.9 0.9 0.9 0.9 0.9 0.9 0.9 0.9 0.9 
0.9 0.9 0.9 0.9 0.9 0.9 0.9 0.9 0.9 
0.9 0.9 0.9 0.9 0.9 0.9 0.9 0.9 0.9 
0.9 0.9 0.9 0.9 0.9 0.9 0.9 0.9 0.9 
0.9 0.9 0.9 0.9 0.9 0.9 0.9 0.9 0.9 
0.9 0.9 0.9 0.9 0.9 0.9 0.9 0.9 0.9 
0.9 0.9 0.9 0.9 0.9 0.9 0.9 0.9 0.9 
0.9 0.9 0.9 0.9 0.9 0.9 0.9 0.9 0.9 
0.9 0.9 0.9 0.9 0.9 0.9 0.9 0.9 0.9 
0.9 0.9 0.9 0.9 0.9 0.9 0.9 0.9 0.9 
0.9 0.9 0.9 0.9 0.9 0.9 0.9 0.9 0.9 
0.9 0.9 0.9 0.9 0.9 0.9 0.9 0.9 0.9 
0.9 0.9 0.9 0.9 0.9 0.9 0.9 0.9 0.9 
0.9 0.9 0.9 0.9 0.9 0.9 0.9 0.9 0.9 
0.9 0.9 0.9 0.9 0.9 0.9 0.9 0.9 0.9 
0.9 0.9 0.9 0.9 0.9 0.9 0.9 0.9 0.9 
0.9 0.9 0.9 0.9 0.9 0.9 0.9 0.9 0.9 
0.9 0.9 0.9 0.9 0.9 0.9 0.9 0.9 0.9 
0.9 0.9 0.9 0.9 0.9 0.9 0.9 0.9 0.9 
0.9 0.9 0.9 0.9 0.9 0.9 0.9 0.9 0.9 
0.9 0.9 0.9 0.9 0.9 0.9 0.9 0.9 0.9 
0.9 0.9 0.9 0.9 0.9 0.9 0.9 0.9 0.9 
0.9 0.9 0.9 0.9 0.9 0.9 0.9 0.9 0.9 
0.9 0.9 0.9 0.9 0.9 0.9 0.9 0.9 0.9 
0.9 0.9 0.9 0.9 0.9 0.9 0.9 0.9 0.9 
0.9 0.9 0.9 0.9 0.9 0.9 0.9 0.9 0.9 
0.9 0.9 0.9 0.9 0.9 0.9 0.9 0.9 0.9 
0.9 0.9 0.9 0.9 0.9 0.9 0.9 0.9 0.9 