# vtk DataFile Version 4.0
vtk output
ASCII
DATASET POLYDATA
POINTS 26 float
-36.7997 18.3206 -144.5 -36.7997 18.3206 -144.5 -35.9277 19.0379 -144.5 
-35.9277 19.0379 -144.5 -35.9277 19.0379 -144.5 -35.9277 19.0379 -144.5 
-35.9277 19.0379 -144.5 -38.2935 19.5157 -134.5 -38.2935 19.5157 -134.5 
-38.1084 19.0379 -134.5 -38.1084 19.0379 -134.5 -38.1084 19.0379 -134.5 
-38.1084 19.0379 -134.5 -38.1084 19.0379 -134.5 -56.8163 40.4285 -234.5 
-56.8163 40.4285 -234.5 -50.258 29.6299 -209.5 -50.258 29.6299 -209.5 
-50.258 29.6299 -209.5 -50.258 29.6299 -209.5 -50.258 29.6299 -209.5 
-55.2424 36.4835 -224.5 -55.2424 36.4835 -224.5 -55.2424 36.4835 -224.5 
-55.2424 36.4835 -224.5 -55.2424 36.4835 -224.5 
POINT_DATA 26
FIELD FieldData 1
ChestRegionChestType 1 26 unsigned_short
10500 10500 10500 10500 10500 10500 10500 10756 10756 
10756 10756 10756 10756 10756 10502 10502 10502 10502 
10502 10502 10502 10758 10758 10758 10758 10758 
