# vtk DataFile Version 3.0
vtk output
ASCII
DATASET POLYDATA
POINTS 516 float
25 25 20.0872 25 25 21.0595 25 25 22.0461 
25 25 23.0135 25 25 23.8511 25 25 25.0471 
25 25 25.994 25 25 26.5547 25 25 27.1154 
25 25 27.6761 25 25 28.4663 25 25 29.0273 
25 25 30.1493 25 25 29.5883 25 25 31.2704 
25 25 30.71 25 25 32.3908 25 25 31.8306 
25 25 32.9508 25 25 33.8378 25 25 34.4103 
25 25 34.9915 25 25 35.5727 25 25 36.7262 
25 25 36.1512 25 25 37.8609 25 25 37.2947 
25 25 38.421 25 25.0001 39.9401 25 25 38.9832 
25 25 40.7562 25 25 41.3155 25 25 41.8747 
25 25 42.4332 25.0001 25 42.9921 25 25 44.1097 
25.0001 25 43.5507 25 25 44.6689 25 25 45.788 
25 25 45.228 25 25 46.9083 25 25 46.3484 
25 25 47.4689 25 25 48.0307 25 25 48.5942 
25 25 49.1563 25 25 49.7198 25 25 50.2821 
25 25 51.4121 25 25 50.847 25 25 51.9778 
25 25 52.5376 25 25 53.1005 25 25 54.2254 
25 25 53.6632 25 25 55.3572 25 25 54.7855 
25 25 56.4871 25 25 55.9231 25 25 57.6146 
25 25 57.0425 25 25 58.1734 25 24.9999 58.7358 
25 25 59.2953 25 25 60.4167 25 25 59.8578 
25 25 61.5416 25 25 60.9779 25 25 62.108 
25 25 62.6748 25 25 63.7997 25 25 63.2375 
25 25 64.3609 25 25 64.9288 25 25 65.4858 
25 25 66.4125 25 25 66.9622 25 25 67.5232 
25 25 68.0829 25 25 68.6346 25 25 69.7531 
25 25 69.1933 25 25 70.3122 25 25 70.8699 
25 25 71.4262 25 25 71.9781 25 25 72.5464 
25 25 73.1058 25 25 73.953 25 25 74.5132 
25 25 76.023 25 25 75.4667 25 25 77.1352 
25 25 76.5714 25 25 78.2653 25 25 77.7071 
25 25 78.823 25 25 79.3906 25 25 80.504 
25 25 79.9553 25 25 81.3944 25 25 81.9591 
25 25 82.5241 25 25 83.6427 25 25 83.0734 
25 25 84.1954 25 25 84.7638 25 25 85.3364 
25 25 86.4592 25 25 85.9042 25 25 87.0274 
25 25 87.5962 25 25 88.1644 25 25 89.0936 
25 25 89.6437 25 25 90.7684 25 25 90.2056 
25 25 91.8697 25 25 91.318 25 25 92.4294 
25 25 92.9883 25 25 94.1042 25.0001 25 93.5528 
25 25 94.6717 25 25 95.2244 25 25 95.7891 
25 25 96.3448 25 25 96.8979 25 25 98.0178 
25 25 97.4573 25 25 98.5713 25 25 99.1317 
25 25 100.268 25 25 99.7021 25 25 100.83 
25 25 101.392 25 25 101.943 25 25 102.503 
25 25 103.06 25 25 104.196 25 25 103.623 
25 25 105.327 25 25 104.766 25 25 106.458 
25 25 105.888 25 25 107.03 25 25 108.428 
25 25 107.87 25 25 109.544 25 25 108.983 
25 25 110.099 25 25 110.66 25 25 111.786 
25 25 111.224 25 25 112.361 25 25 112.928 
25 25 113.482 25 25 114.051 25 25 114.614 
25 25 115.167 25 25 115.736 25 25 116.856 
25 25 116.298 25 25 117.416 25 25 117.975 
25 25 118.524 25 25 119.086 25 25 120.212 
25 25 119.643 25 25 121.117 25 25 121.673 
25 25 122.244 25 25 122.81 25 25 123.357 
25 25 123.911 25 25 124.466 25 25 125.019 
25 25 126.149 25 25 125.586 25 25 126.711 
25 25 127.267 25 25 128.388 25 25 127.822 
25 25 129.512 25 25 128.946 25 25 130.071 
25 25 130.641 25 25 131.753 25 25 131.194 
25 25 132.316 25 25 132.879 25 25 133.458 
25 25 134.013 25 25 134.576 25 25 135.131 
25 25 135.695 25 25 136.827 25 25 136.264 
25 25 137.94 25 25 137.381 25 25 139.054 
25 25 138.494 25 25 139.608 25 25 140.178 
25 25 140.737 25 25 141.878 25 25 141.314 
25 25 143.012 25 25 142.438 25 25 144.143 
25 25 143.575 25 25 144.708 25 25 145.278 
25 25 145.841 25 25 146.404 25 25 146.962 
25 25 147.529 25 25 148.084 25 24.9999 148.653 
25 24.9999 149.222 25 24.9999 149.79 25 25 150.351 
25 25 150.914 25 25 151.482 25 25 152.045 
25 25 152.603 25 25 153.158 25 25 153.718 
25 25 154.287 25 25 155.418 25 25 154.848 
25 25 155.984 25 25 156.534 25 24.9999 157.677 
25 25 157.105 25 25 158.243 25 25 158.797 
25 25 159.362 25 25 159.91 25 25 160.47 
25 25 161.034 25 25 161.594 25 25 162.702 
25 25 162.15 25 25 163.256 25 25 163.809 
25 25 164.935 25 25 164.373 25 25 165.489 
25 25 166.049 25 25 167.19 25 25 166.619 
25 25 167.759 25 25 168.699 25 25 169.25 
25 25 169.81 25 25 170.373 25 25 170.937 
25 25 171.511 25 25 172.088 25 25 173.214 
25 25 172.657 25 25 174.329 25 25 173.77 
25 25 174.891 25 25 175.464 25 25 176.032 
25 25 176.598 25 25 177.159 25 25 178.271 
25 25 177.722 25 25 179.416 25 25 178.838 
25 25 179.991 25 25 180.547 25 25 181.688 
25 25 181.118 25 25 182.252 25 25 182.816 
25 25 183.36 25 25 184.501 25 25 183.925 
25 25 185.602 25 25 185.051 25 25 186.16 
25 25 186.718 25 25 187.846 25 25 187.284 
25 25 188.418 25 25 188.994 25 25 190.121 
25 25 189.553 25 25 190.675 25 25 191.807 
25 25 191.244 25 25 192.374 25 25 192.937 
25 25 193.498 25 25 194.043 25 25 195.166 
25 25 194.601 25 25 195.731 25 25 196.304 
25 25 197.432 25 25 196.866 25 25 197.986 
25 25 198.559 25 25 199.124 25 25 200.236 
25 25 199.683 25 25 200.801 25 25 201.35 
25 25 202.453 25 25 201.898 25 25 203.01 
25 25 203.585 25 25 204.691 25 25 204.139 
25 25 205.244 25 25 205.788 25 25 206.335 
25 25 206.887 25 25 207.446 25 25 208.007 
25 25 208.553 25 25 209.111 25 25 209.657 
25 25 210.216 25 25 210.765 25 25 211.891 
25 25 211.327 25 25 213.014 25 25 212.457 
25 25 214.128 25 25 213.577 25 25 214.697 
25 25 215.252 25 25 215.804 25 25 216.937 
25 25 216.38 25 25 218.065 25 25 217.506 
25 25 218.631 25 25 219.205 25 25 219.777 
25 25 220.336 25 25 221.455 25 25 220.903 
25 25 222.023 25 25 223.141 25 25 222.574 
25 25 224.264 25 25 223.707 25 25 225.377 
25 25 224.823 25 25 225.934 25 25 226.5 
25 25 227.636 25 25 227.07 25 25 228.203 
25.0001 25 228.766 25 25 229.347 25 25 230.459 
25 25 229.899 25 25 231.019 25 25 231.575 
25 25 232.123 25 25 232.68 25 25 233.808 
25 25 233.237 25 25 234.922 25 25 234.364 
25 25 235.482 25 25 236.05 25 25 236.613 
25 25 237.711 25 25 237.163 25 25 238.258 
25 25 238.813 25 25 239.925 25 25 239.375 
25 25 241.045 25 25 240.484 25 25 241.605 
25 25 242.161 25 25 242.98 25 24.9999 244.127 
25 25 243.56 25 24.9999 245.253 25 24.9999 244.68 
25 25 246.37 25 25 245.802 25 25 247.478 
25 25 246.927 25 25 248.04 25 25 248.587 
25 25 249.14 25 25 250.279 25 25 249.7 
25 25 250.846 25 25 251.413 25 25 252.308 
25 25 253.432 25 25 252.859 25 25 253.987 
25 25 254.538 25 25 255.111 25 25 255.663 
25 25 256.77 25 25 256.21 25 25 257.895 
25 25 257.333 25 25 258.442 25 25 258.997 
25 25 259.612 25 25 260.789 25 25 260.19 
25 25 261.911 25 25 261.345 25 25 262.473 
25 25 263.043 25 25 264.155 25 25 263.602 
25 25 264.704 25 25 265.87 25 25 265.268 
25 25 266.419 25 25 266.977 25 25 268.086 
25 25 267.526 25 25 269.178 25 25 268.631 
25 25 270.286 25 25 269.735 25 25 270.849 
25 25 271.403 25 25 272.506 25 25 271.952 
25 25 273.053 25 25 273.604 25 25 274.159 
25 25 274.706 25 25 275.282 25 25 275.834 
25 25 276.371 25 25 276.915 25 25 277.479 
25 25 278.582 25 25 278.033 25 25 279.147 
25 25 279.708 25 25 280.269 25 25 280.841 
25 25 281.402 25 25 281.964 25 25 282.521 
25 25 283.616 25 25 283.061 25 25 284.171 
25 25 284.734 25 25 285.294 25 25 285.882 
25 25 286.438 25 25 287.012 25 25 288.12 
25 25 287.555 25 25 288.679 25 25 289.811 
25 25 289.255 25 25 290.374 25 25 290.929 
25 25 291.484 25 25 292.032 25 25 292.576 
25 25 293.126 25 25 293.676 25 25 294.236 
25 25 295.343 25 25 294.792 25 25 296.435 
25 25 295.892 25 25 296.989 25 25 297.54 
25 25 298.084 25 25 298.636 25 25 299.197 
25 25 299.768 25 25 300.334 25 25 300.896 
25 25 301.462 25 25 302.015 25 25 302.573 
25 25 303.657 25 25 303.125 25 25 304.234 
25 25 304.813 25 25 305.925 25 24.9999 305.357 
25 25 306.483 25 25 307.044 25.0001 25 307.6 
24.9999 25 308.737 24.9999 25 308.16 25 25 309.31 
25 25 309.856 25 25 310.404 25 25 310.951 
25 25 312.043 25 25 311.484 25 25 312.587 
25 25 313.131 25 25 314.235 25 25 313.682 
25 25 314.803 25 25 315.367 25 25 315.916 

POINT_DATA 516
FIELD FieldData 10
scale 1 516 float
0.775431 0.783359 0.803499 0.815945 0.834335 0.857341 0.884594 0.899306 0.911428 
0.919058 0.939491 0.950183 0.982316 0.972066 1.012 0.99156 1.02687 1.02707 
1.04375 1.07607 1.08233 1.08796 1.10034 1.13477 1.12199 1.15013 1.14601 
1.16365 1.20113 1.17741 1.23223 1.24546 1.26004 1.27531 1.2986 1.3181 
1.30935 1.33839 1.3641 1.35839 1.39245 1.39124 1.40607 1.42024 1.43245 
1.46118 1.46461 1.47831 1.51315 1.49074 1.52572 1.53512 1.5501 1.58602 
1.57119 1.61636 1.60003 1.64827 1.62071 1.67251 1.65453 1.68903 1.70053 
1.72001 1.74812 1.73647 1.78069 1.77279 1.79288 1.81877 1.85302 1.82437 
1.86567 1.88125 1.88993 1.92645 1.93311 1.94209 1.96218 1.98334 2.00763 
1.99878 2.01971 2.04301 2.04335 2.05689 2.07775 2.09718 2.1097 2.12267 
2.16818 2.15644 2.20057 2.18197 2.2325 2.21356 2.24652 2.26141 2.28345 
2.27747 2.31689 2.33271 2.34817 2.38047 2.36895 2.39933 2.41441 2.43254 
2.46777 2.45006 2.48366 2.50009 2.51678 2.54402 2.55959 2.5911 2.58204 
2.62921 2.60769 2.63902 2.65317 2.68366 2.66782 2.69789 2.71395 2.72927 
2.74177 2.75792 2.7889 2.77176 2.80196 2.81671 2.84587 2.82967 2.86099 
2.87474 2.89028 2.90455 2.91725 2.95489 2.93184 2.97507 2.96029 3.00379 
2.98965 3.01739 3.05689 3.04133 3.08675 3.07226 3.10163 3.11679 3.14637 
3.13193 3.16246 3.17692 3.19255 3.20921 3.22421 3.24074 3.25641 3.28893 
3.27163 3.30476 3.32164 3.33949 3.35598 3.38937 3.37342 3.41988 3.43584 
3.45249 3.46958 3.48629 3.50373 3.51931 3.53561 3.56637 3.55242 3.58432 
3.60033 3.63247 3.61636 3.66451 3.64888 3.67967 3.69534 3.72741 3.71148 
3.74022 3.7582 3.77311 3.78785 3.80333 3.81946 3.83438 3.86369 3.84927 
3.89458 3.87893 3.92291 3.90876 3.93799 3.95296 3.96713 3.99813 3.982 
4.02759 4.01298 4.05644 4.04188 4.07125 4.08534 4.09966 4.1144 4.12982 
4.14456 4.1599 4.17481 4.18986 4.20452 4.21991 4.23487 4.24967 4.26504 
4.28027 4.29562 4.31102 4.32637 4.3574 4.34174 4.37308 4.38872 4.42061 
4.40388 4.43603 4.45231 4.46815 4.48481 4.50097 4.51671 4.53349 4.56782 
4.5505 4.58446 4.60168 4.63715 4.61978 4.65493 4.67153 4.70274 4.68735 
4.71773 4.74831 4.76323 4.78098 4.79659 4.81231 4.8289 4.84512 4.87836 
4.86207 4.90968 4.89387 4.92594 4.94183 4.95736 4.97218 4.98803 5.01916 
5.00353 5.05086 5.03541 5.06618 5.08092 5.11099 5.09589 5.12787 5.14407 
5.15882 5.18711 5.17259 5.21862 5.20367 5.23353 5.24949 5.27783 5.26372 
5.29315 5.30905 5.33834 5.32413 5.35242 5.38368 5.36839 5.39875 5.4138 
5.42849 5.44381 5.47331 5.4592 5.48831 5.50334 5.53469 5.51892 5.54901 
5.56466 5.58019 5.60898 5.59436 5.62503 5.6403 5.67197 5.65645 5.6867 
5.70211 5.73197 5.71676 5.74766 5.764 5.77969 5.79548 5.81129 5.82713 
5.84414 5.86098 5.87792 5.89428 5.90959 5.93971 5.92412 5.97511 5.95734 
6 5.99077 6 6 6 6 6 6 6 
6 6 6 6 6 6 6 6 6 
6 6 6 6 6 6 6 6 6 
6 6 6 6 6 6 6 6 6 
6 6 6 6 6 6 6 6 6 
6 6 6 6 6 6 6 6 6 
6 6 6 6 6 6 6 6 6 
6 6 6 6 6 6 6 6 6 
6 6 6 6 6 6 6 6 6 
6 6 6 6 6 6 6 6 6 
6 6 6 6 6 6 6 6 6 
6 6 6 6 6 6 6 6 6 
6 6 6 6 6 6 6 6 6 
6 6 6 6 6 6 6 6 6 
6 6 6 6 6 6 6 6 6 
6 6 6 6 6 6 6 6 6 
6 6 6 6 6 6 6 6 6 
6 6 6 6 6 6 6 6 6 
6 6 6 6 6 6 6 6 6 
6 6 6 6 6 6 6 6 6 
6 6 6 
hevec1 3 516 float
-0.707107 0.707107 1.40401e-07 -0.707107 0.707107 1.10255e-07 -0.707107 0.707107 4.71857e-08 
-0.707107 0.707107 -1.52286e-07 -0.707107 0.707107 -7.14538e-08 -0.707107 0.707107 -4.148e-10 
-0.707107 0.707107 3.93881e-09 -0.707107 0.707107 2.54089e-08 -0.707107 0.707107 2.58428e-08 
-0.707107 0.707107 2.50967e-08 -0.707107 0.707107 -3.11594e-08 -0.707107 0.707107 1.96312e-09 
-0.707107 0.707107 -1.62896e-07 -0.707107 0.707107 -1.63752e-07 -0.707107 0.707107 2.28303e-08 
-0.707107 0.707107 5.33003e-09 -0.707107 0.707107 1.65024e-08 -0.707107 0.707107 2.17031e-08 
-0.707107 0.707107 1.76587e-08 -0.707107 0.707107 -3.67387e-08 -0.707107 0.707107 -3.12994e-08 
-0.707107 0.707107 3.88372e-08 -0.707107 0.707107 1.66993e-08 -0.707107 0.707107 2.60504e-09 
-0.707107 0.707107 7.20363e-10 -0.707107 0.707107 -5.47444e-09 -0.707107 0.707107 -4.49407e-09 
-0.707107 0.707107 -2.52954e-09 -0.707107 0.707107 -1.89736e-07 -0.707107 0.707107 -2.93132e-08 
-0.707107 0.707107 -2.31997e-10 -0.707107 0.707107 -1.70005e-10 -0.707107 0.707107 -2.16278e-09 
-0.707107 0.707107 -9.6705e-10 -0.707107 0.707107 -1.68936e-08 -0.707107 0.707107 -1.34825e-08 
-0.707107 0.707107 -2.01149e-08 -0.707107 0.707107 1.06035e-10 -0.707107 0.707107 3.22943e-10 
-0.707107 0.707107 1.19112e-09 -0.707107 0.707107 -8.0442e-11 -0.707107 0.707107 8.73877e-10 
-0.707107 0.707107 6.01171e-10 -0.707107 0.707107 6.31353e-10 -0.707107 0.707107 1.59576e-09 
-0.707107 0.707107 -1.83268e-09 -0.707107 0.707107 2.42561e-09 -0.707107 0.707107 4.85592e-09 
-0.707107 0.707107 9.52617e-09 -0.707107 0.707107 8.25629e-09 -0.707107 0.707107 4.34264e-09 
-0.707107 0.707107 1.50133e-08 -0.707107 0.707107 1.48808e-08 -0.707107 0.707107 4.73243e-08 
-0.707107 0.707107 -6.1957e-09 -0.707107 0.707107 2.88676e-08 -0.707107 0.707107 -4.77872e-08 
-0.707107 0.707107 1.60943e-08 -0.707107 0.707107 3.31044e-08 -0.707107 0.707107 2.14245e-08 
-0.707107 0.707107 2.30324e-08 -0.707107 0.707107 2.38516e-08 -0.707107 0.707107 3.01104e-08 
-0.707107 0.707107 -7.0457e-09 -0.707107 0.707107 2.33054e-09 -0.707107 0.707107 -7.21637e-09 
-0.707107 0.707107 1.701e-09 -0.707107 0.707107 1.60774e-09 -0.707107 0.707107 -1.71296e-08 
-0.707107 0.707107 -7.19543e-09 -0.707107 0.707107 1.27076e-09 -0.707107 0.707107 -5.28203e-10 
-0.707107 0.707107 -9.61074e-10 -0.707107 0.707107 -7.32651e-12 -0.707107 0.707107 6.61071e-12 
-0.707107 0.707107 3.24376e-11 -0.707107 0.707107 -5.30336e-11 -0.707107 0.707107 -1.08127e-10 
-0.707107 0.707107 -1.73319e-08 -0.707107 0.707107 -6.61015e-11 -0.707107 0.707107 -5.92312e-09 
-0.707107 0.707107 -4.33084e-09 -0.707107 0.707107 -6.75637e-09 -0.707107 0.707107 1.46697e-09 
-0.707107 0.707107 2.07858e-09 -0.707107 0.707107 2.18036e-09 -0.707107 0.707107 1.9896e-09 
-0.707107 0.707107 -8.09747e-09 -0.707107 0.707107 -2.29837e-09 -0.707107 0.707107 -3.59958e-08 
-0.707107 0.707107 -2.3611e-08 -0.707107 0.707107 -2.59313e-08 -0.707107 0.707107 8.2316e-10 
-0.707107 0.707107 -2.94544e-11 -0.707107 0.707107 -4.16311e-11 -0.707107 0.707107 -5.18116e-10 
-0.707107 0.707107 -1.81853e-10 -0.707107 0.707107 -2.60988e-09 -0.707107 0.707107 -1.28817e-08 
-0.707107 0.707107 -2.0614e-09 -0.707107 0.707107 -1.88896e-10 -0.707107 0.707107 -2.62073e-10 
-0.707107 0.707107 -3.4026e-10 -0.707107 0.707107 1.51334e-09 -0.707107 0.707107 1.15795e-09 
-0.707107 0.707107 9.95233e-09 -0.707107 0.707107 1.05697e-08 -0.707107 0.707107 -1.3443e-09 
-0.707107 0.707107 -1.16294e-09 -0.707107 0.707107 -1.27127e-09 -0.707107 0.707107 1.9422e-09 
-0.707107 0.707107 3.47463e-12 -0.707107 0.707107 4.58753e-10 -0.707107 0.707107 2.26062e-09 
-0.707107 0.707107 2.9424e-09 -0.707107 0.707107 2.03968e-09 -0.707107 0.707107 1.59472e-09 
-0.707107 0.707107 4.63469e-12 -0.707107 0.707107 1.83711e-11 -0.707107 0.707107 -4.29997e-13 
-0.707107 0.707107 -2.1388e-10 -0.707107 0.707107 -6.88088e-12 -0.707107 0.707107 1.12528e-10 
-0.707107 0.707107 -2.75107e-12 -0.707107 0.707107 7.1874e-12 -0.707107 0.707107 9.23063e-12 
-0.707107 0.707107 -1.75388e-11 -0.707107 0.707107 -1.09617e-09 -0.707107 0.707107 -7.71674e-10 
-0.707107 0.707107 -7.95389e-10 -0.707107 0.707107 -9.00647e-10 -0.707107 0.707107 -9.76074e-10 
-0.707107 0.707107 7.03169e-11 -0.707107 0.707107 7.48673e-11 -0.707107 0.707107 4.14814e-10 
-0.707107 0.707107 -1.27048e-11 -0.707107 0.707107 5.9353e-10 -0.707107 0.707107 1.57978e-09 
-0.707107 0.707107 1.70002e-09 -0.707107 0.707107 1.10893e-09 -0.707107 0.707107 -2.00873e-09 
-0.707107 0.707107 -5.90279e-10 -0.707107 0.707107 2.06707e-09 -0.707107 0.707107 9.64515e-10 
-0.707107 0.707107 9.5661e-10 -0.707107 0.707107 5.30954e-10 -0.707107 0.707107 -2.10515e-09 
-0.707107 0.707107 -2.20429e-09 -0.707107 0.707107 -1.11195e-09 -0.707107 0.707107 -2.0716e-09 
-0.707107 0.707107 3.13038e-09 -0.707107 0.707107 2.79339e-09 -0.707107 0.707107 -1.93642e-10 
-0.707107 0.707107 2.87622e-09 -0.707107 0.707107 -3.52767e-11 -0.707107 0.707107 -3.415e-11 
-0.707107 0.707107 -3.30235e-11 -0.707107 0.707107 -3.32103e-11 -0.707107 0.707107 -4.79746e-09 
-0.707107 0.707107 -4.62661e-09 -0.707107 0.707107 -6.16496e-11 -0.707107 0.707107 -5.48549e-09 
-0.707107 0.707107 -5.4083e-09 -0.707107 0.707107 -3.14e-09 -0.707107 0.707107 -2.65182e-10 
-0.707107 0.707107 -1.57986e-09 -0.707107 0.707107 -1.53609e-09 -0.707107 0.707107 6.55564e-10 
-0.707107 0.707107 -1.45057e-09 -0.707107 0.707107 -2.21124e-09 -0.707107 0.707107 -2.06075e-09 
-0.707107 0.707107 4.52788e-10 -0.707107 0.707107 3.95855e-10 -0.707107 0.707107 9.77456e-10 
-0.707107 0.707107 -2.19505e-10 -0.707107 0.707107 -2.09384e-10 -0.707107 0.707107 5.7818e-10 
-0.707107 0.707107 -8.48775e-10 -0.707107 0.707107 3.85237e-10 -0.707107 0.707107 2.45852e-12 
-0.707107 0.707107 1.06306e-12 -0.707107 0.707107 3.16574e-11 -0.707107 0.707107 -3.31651e-12 
-0.707107 0.707107 -2.21006e-12 -0.707107 0.707107 7.16658e-12 -0.707107 0.707107 6.78014e-12 
-0.707107 0.707107 1.32107e-11 -0.707107 0.707107 -8.18178e-11 -0.707107 0.707107 3.35972e-11 
-0.707107 0.707107 5.40154e-12 -0.707107 0.707107 2.21238e-10 -0.707107 0.707107 2.01492e-10 
-0.707107 0.707107 2.02997e-10 -0.707107 0.707107 1.42767e-10 -0.707107 0.707107 -2.72558e-13 
-0.707107 0.707107 -2.04248e-09 -0.707107 0.707107 6.61135e-11 -0.707107 0.707107 1.21765e-10 
-0.707107 0.707107 4.19821e-10 -0.707107 0.707107 6.77825e-11 -0.707107 0.707107 4.33481e-10 
-0.707107 0.707107 4.47504e-10 -0.707107 0.707107 -2.93822e-11 -0.707107 0.707107 -7.1953e-11 
-0.707107 0.707107 -6.73753e-11 -0.707107 0.707107 6.42313e-11 -0.707107 0.707107 -4.94056e-11 
-0.707107 0.707107 2.36293e-14 -0.707107 0.707107 -1.88117e-10 -0.707107 0.707107 1.21211e-10 
-0.707107 0.707107 1.70695e-14 -0.707107 0.707107 -8.65253e-10 -0.707107 0.707107 -1.61616e-09 
-0.707107 0.707107 2.00955e-09 -0.707107 0.707107 -1.43364e-09 -0.707107 0.707107 -4.63745e-11 
-0.707107 0.707107 -6.48501e-11 -0.707107 0.707107 -5.77773e-11 -0.707107 0.707107 4.11905e-09 
-0.707107 0.707107 5.32347e-09 -0.707107 0.707107 5.93172e-09 -0.707107 0.707107 -1.01885e-09 
-0.707107 0.707107 -2.75479e-10 -0.707107 0.707107 -2.97746e-10 -0.707107 0.707107 -3.10489e-10 
-0.707107 0.707107 -3.16474e-10 -0.707107 0.707107 -7.67225e-12 -0.707107 0.707107 -4.18088e-10 
-0.707107 0.707107 -4.39041e-10 -0.707107 0.707107 -1.93587e-09 -0.707107 0.707107 -5.04255e-11 
-0.707107 0.707107 -5.40106e-10 -0.707107 0.707107 -5.76099e-10 -0.707107 0.707107 1.4451e-08 
-0.707107 0.707107 -6.75087e-10 -0.707107 0.707107 -4.81239e-10 -0.707107 0.707107 -4.32124e-10 
-0.707107 0.707107 -2.0462e-10 -0.707107 0.707107 -1.63934e-10 -0.707107 0.707107 2.11442e-12 
-0.707107 0.707107 -3.97809e-10 -0.707107 0.707107 -4.7763e-10 -0.707107 0.707107 -4.28767e-10 
-0.707107 0.707107 -5.23443e-10 -0.707107 0.707107 -2.81808e-10 -0.707107 0.707107 -4.93021e-10 
-0.707107 0.707107 -2.85236e-10 -0.707107 0.707107 -3.24649e-10 -0.707107 0.707107 -4.56208e-11 
-0.707107 0.707107 -4.49433e-11 -0.707107 0.707107 -5.10545e-12 -0.707107 0.707107 -5.86123e-11 
-0.707107 0.707107 -7.16972e-11 -0.707107 0.707107 2.47528e-12 -0.707107 0.707107 1.31849e-12 
-0.707107 0.707107 1.47235e-12 -0.707107 0.707107 3.80893e-12 -0.707107 0.707107 2.94692e-12 
-0.707107 0.707107 4.29969e-13 -0.707107 0.707107 3.77406e-13 -0.707107 0.707107 5.41125e-11 
-0.707107 0.707107 4.21076e-11 -0.707107 0.707107 -4.15555e-11 -0.707107 0.707107 4.07052e-11 
-0.707107 0.707107 6.6948e-11 -0.707107 0.707107 6.22976e-12 -0.707107 0.707107 -1.28656e-10 
-0.707107 0.707107 -1.77783e-10 -0.707107 0.707107 4.35569e-11 -0.707107 0.707107 -3.02211e-11 
-0.707107 0.707107 9.42444e-11 -0.707107 0.707107 3.1367e-12 -0.707107 0.707107 3.88895e-11 
-0.707107 0.707107 -1.22393e-12 -0.707107 0.707107 7.16458e-11 -0.707107 0.707107 1.83092e-11 
-0.707107 0.707107 5.82151e-11 -0.707107 0.707107 -3.36226e-11 -0.707107 0.707107 -2.64417e-11 
-0.707107 0.707107 1.21689e-11 -0.707107 0.707107 4.61862e-11 -0.707107 0.707107 1.63795e-11 
-0.707107 0.707107 -1.60741e-11 -0.707107 0.707107 -9.39265e-13 -0.707107 0.707107 -3.90363e-11 
-0.707107 0.707107 -5.43279e-11 -0.707107 0.707107 2.58507e-10 -0.707107 0.707107 2.99692e-12 
-0.707107 0.707107 1.968e-10 -0.707107 0.707107 -4.86168e-12 -0.707107 0.707107 -1.33407e-10 
-0.707107 0.707107 2.47426e-12 -0.707107 0.707107 -6.54938e-11 -0.707107 0.707107 -6.4158e-11 
-0.707107 0.707107 1.43395e-11 -0.707107 0.707107 1.34125e-11 -0.707107 0.707107 1.22588e-11 
-0.707107 0.707107 -3.77795e-14 -0.707107 0.707107 1.38134e-12 -0.707107 0.707107 -1.4409e-13 
-0.707107 0.707107 2.65083e-12 -0.707107 0.707107 -2.98554e-11 -0.707107 0.707107 -6.92655e-12 
-0.707107 0.707107 -2.88875e-11 -0.707107 0.707107 -2.02028e-11 -0.707107 0.707107 -4.50517e-11 
-0.707107 0.707107 -2.73133e-10 -0.707107 0.707107 -4.50603e-11 -0.707107 0.707107 5.35392e-11 
-0.707107 0.707107 4.8912e-11 -0.707107 0.707107 -1.19861e-10 -0.707107 0.707107 -3.90659e-10 
-0.707107 0.707107 -4.61475e-10 -0.707107 0.707107 -1.7883e-11 -0.707107 0.707107 -3.21914e-12 
-0.707107 0.707107 -1.45901e-11 -0.707107 0.707107 2.46918e-12 -0.707107 0.707107 -5.29222e-13 
-0.707107 0.707107 -7.796e-11 -0.707107 0.707107 -8.66117e-11 -0.707107 0.707107 -1.24877e-11 
-0.707107 0.707107 -5.34228e-12 -0.707107 0.707107 -2.51992e-11 -0.707107 0.707107 -2.71899e-11 
-0.707107 0.707107 -2.40527e-11 -0.707107 0.707107 -2.43642e-11 -0.707107 0.707107 -1.41602e-11 
-0.707107 0.707107 -5.18749e-12 -0.707107 0.707107 -1.24125e-12 -0.707107 0.707107 -3.90371e-11 
-0.707107 0.707107 -2.88015e-12 -0.707107 0.707107 -3.41934e-11 -0.707107 0.707107 -5.57642e-11 
-0.707107 0.707107 -5.88912e-12 -0.707107 0.707107 -3.52185e-12 -0.707107 0.707107 -2.02107e-11 
-0.707107 0.707107 -2.84083e-11 -0.707107 0.707107 -3.57535e-11 -0.707107 0.707107 -1.55718e-10 
-0.707107 0.707107 -4.25174e-11 -0.707107 0.707107 -3.04525e-11 -0.707107 0.707107 -1.84244e-10 
-0.707107 0.707107 -3.41581e-11 -0.707107 0.707107 -3.74844e-11 -0.707107 0.707107 -4.10906e-11 
-0.707107 0.707107 -4.49026e-11 -0.707107 0.707107 -6.40584e-11 -0.707107 0.707107 -6.10417e-11 
-0.707107 0.707107 -3.44597e-09 -0.707107 0.707107 -3.93164e-09 -0.707107 0.707107 -3.70797e-09 
-0.707107 0.707107 -1.36609e-09 -0.707107 0.707107 -4.12806e-09 -0.707107 0.707107 -1.5322e-09 
-0.707107 0.707107 -1.43844e-09 -0.707107 0.707107 1.96774e-10 -0.707107 0.707107 2.02358e-10 
-0.707107 0.707107 1.92355e-11 -0.707107 0.707107 1.82986e-11 -0.707107 0.707107 1.98063e-11 
-0.707107 0.707107 1.48252e-08 -0.707107 0.707107 -2.50915e-10 -0.707107 0.707107 1.35517e-09 
-0.707107 0.707107 1.30244e-09 -0.707107 0.707107 -1.06373e-10 -0.707107 0.707107 -1.08673e-10 
-0.707107 0.707107 -1.12809e-10 -0.707107 0.707107 -1.17321e-10 -0.707107 0.707107 -1.23292e-10 
-0.707107 0.707107 -1.20421e-10 -0.707107 0.707107 2.34921e-10 -0.707107 0.707107 2.31628e-10 
-0.707107 0.707107 2.39031e-10 -0.707107 0.707107 2.47375e-10 -0.707107 0.707107 1.6065e-10 
-0.707107 0.707107 -2.50071e-09 -0.707107 0.707107 1.62798e-10 -0.707107 0.707107 -2.55012e-09 
-0.707107 0.707107 -2.61497e-09 -0.707107 0.707107 -3.30062e-10 -0.707107 0.707107 -3.27026e-10 
-0.707107 0.707107 -8.44927e-10 -0.707107 0.707107 -8.20447e-10 -0.707107 0.707107 -8.67452e-10 
-0.707107 0.707107 -3.69776e-09 -0.707107 0.707107 -3.80284e-09 -0.707107 0.707107 1.05184e-07 
-0.707107 0.707107 -3.88556e-09 -0.707107 0.707107 1.09117e-07 -0.707107 0.707107 1.06556e-07 
-0.707107 0.707107 2.71379e-08 -0.707107 0.707107 -3.74254e-09 -0.707107 0.707107 4.30639e-09 
-0.707107 0.707107 2.74379e-08 -0.707107 0.707107 4.38854e-09 -0.707107 0.707107 4.45584e-09 
-0.707107 0.707107 4.48316e-09 -0.707107 0.707107 -3.25016e-09 -0.707107 0.707107 -3.20685e-09 
-0.707107 0.707107 -3.31878e-09 -0.707107 0.707107 -3.37314e-09 -0.707107 0.707107 -1.64384e-09 
-0.707107 0.707107 -1.66975e-09 -0.707107 0.707107 -1.658e-09 -0.707107 0.707107 -7.88374e-10 
-0.707107 0.707107 -3.61454e-10 -0.707107 0.707107 -3.66076e-10 -0.707107 0.707107 -3.68919e-10 
-0.707107 0.707107 5.89183e-08 -0.707107 0.707107 -3.70188e-10 -0.707107 0.707107 -3.66513e-10 
-0.707107 0.707107 -3.83806e-10 -0.707107 0.707107 6.12619e-08 -0.707107 0.707107 6.19076e-08 
-0.707107 0.707107 -3.41018e-10 -0.707107 0.707107 -4.18231e-10 -0.707107 0.707107 -3.43257e-10 
-0.707107 0.707107 1.92625e-10 -0.707107 0.707107 1.90908e-10 -0.707107 0.707107 1.94326e-10 
-0.707107 0.707107 1.9572e-10 -0.707107 0.707107 2.01014e-10 -0.707107 0.707107 1.97485e-10 
-0.707107 0.707107 2.02981e-10 -0.707107 0.707107 -5.62515e-10 -0.707107 0.707107 -5.56336e-10 
-0.707107 0.707107 -6.69228e-11 -0.707107 0.707107 -6.75101e-11 -0.707107 0.707107 -7.66603e-11 
-0.707107 0.707107 -6.77732e-11 -0.707107 0.707107 4.53775e-10 -0.707107 0.707107 -7.72594e-11 
-0.707107 0.707107 -3.29356e-10 -0.707107 0.707107 4.57148e-10 -0.707107 0.707107 -3.32809e-10 
-0.707107 0.707107 -3.37274e-10 -0.707107 0.707107 -7.30489e-10 -0.707107 0.707107 -7.25664e-10 
-0.707107 0.707107 -7.35625e-10 -0.707107 0.707107 9.5948e-10 -0.707107 0.707107 9.67218e-10 
-0.707107 0.707107 -4.19613e-10 -0.707107 0.707107 -4.21335e-10 -0.707107 0.707107 -4.25627e-10 
-0.707107 0.707107 -4.29578e-10 -0.707107 0.707107 -4.32218e-10 -0.707107 0.707107 -4.98494e-09 
-0.707107 0.707107 -7.46031e-09 -0.707107 0.707107 -7.41585e-09 -0.707107 0.707107 -5.80946e-11 
-0.707107 0.707107 -1.10506e-09 -0.707107 0.707107 -1.10913e-09 -0.707107 0.707107 -2.21093e-09 
-0.707107 0.707107 -2.22239e-09 -0.707107 0.707107 -4.02289e-09 -0.707107 0.707107 -4.04619e-09 
-0.707107 0.707107 -2.30158e-09 -0.707107 0.707107 -4.08032e-09 -0.707107 0.707107 -2.00607e-10 
-0.707107 0.707107 -2.01555e-10 -0.707107 0.707107 -3.67466e-09 -0.707107 0.707107 -3.87049e-09 
-0.707107 0.707107 -3.7222e-09 -0.707107 0.707107 -3.74144e-09 -0.707107 0.707107 -3.22304e-09 
-0.707107 0.707107 -3.19579e-09 -0.707107 0.707107 -4.55264e-09 -0.707107 0.707107 -3.27411e-09 
-0.707107 0.707107 -4.56515e-09 -0.707107 0.707107 -3.29198e-09 -0.707107 0.707107 -1.96487e-09 
-0.707107 0.707107 -1.97129e-09 -0.707107 0.707107 -1.99872e-09 -0.707107 0.707107 -2.01999e-09 
-0.707107 0.707107 -2.01743e-09 -0.707107 0.707107 -2.01821e-09 -0.707107 0.707107 -4.78068e-10 
-0.707107 0.707107 -4.84921e-10 -0.707107 0.707107 -4.81226e-10 -0.707107 0.707107 -2.35539e-09 
-0.707107 0.707107 -2.35122e-09 -0.707107 0.707107 -2.36784e-09 -0.707107 0.707107 -2.38315e-09 
-0.707107 0.707107 -2.39723e-09 -0.707107 0.707107 -5.0254e-09 -0.707107 0.707107 -5.04596e-09 
-0.707107 0.707107 -3.86517e-09 -0.707107 0.707107 -3.87335e-09 -0.707107 0.707107 -3.88727e-09 
-0.707107 0.707107 -3.9112e-09 -0.707107 0.707107 -3.9283e-09 -0.707107 0.707107 -3.93471e-09 
-0.707107 0.707107 -5.62436e-10 -0.707107 0.707107 -5.60609e-10 -0.707107 0.707107 -1.76003e-09 
-0.707107 0.707107 -1.76346e-09 -0.707107 0.707107 2.44195e-11 -0.707107 0.707107 4.50635e-08 
-0.707107 0.707107 -1.55413e-09 -0.707107 0.707107 -1.54998e-09 -0.707107 0.707107 1.29515e-07 
-0.707107 0.707107 -2.22722e-07 -0.707107 0.707107 -2.24383e-07 -0.707107 0.707107 -7.3681e-11 
-0.707107 0.707107 -7.2765e-11 -0.707107 0.707107 -7.15818e-11 -0.707107 0.707107 -7.03683e-11 
-0.707107 0.707107 -2.83043e-10 -0.707107 0.707107 -2.91498e-10 -0.707107 0.707107 -1.20338e-10 
-0.707107 0.707107 -1.1649e-10 -0.707107 0.707107 -3.34968e-10 -0.707107 0.707107 -1.11841e-10 
-0.707107 0.707107 -3.16384e-10 -0.707107 0.707107 -2.97734e-10 -0.707107 0.707107 -2.76751e-10 

hevec0 3 516 float
1.79684e-08 -1.80589e-07 1 1.41103e-08 -1.41814e-07 1 3.47646e-08 -3.1966e-08 1 
-1.37633e-07 7.77313e-08 1 -9.86518e-08 2.39916e-09 1 -4.17579e-10 1.69036e-10 1 
-2.09977e-09 -7.67008e-09 1 -4.06014e-09 -3.99937e-08 1 -4.12948e-09 -4.06767e-08 1 
-4.01026e-09 -3.95023e-08 1 -3.09467e-08 1.31193e-08 1 1.01308e-08 7.35458e-09 1 
-1.36875e-07 9.34944e-08 1 -1.37595e-07 9.3986e-08 1 2.22226e-07 1.89939e-07 1 
2.18277e-08 1.42899e-08 1 1.60631e-07 1.37293e-07 1 2.11254e-07 1.80561e-07 1 
1.71887e-07 1.46914e-07 1 -1.71771e-07 -1.19815e-07 1 -1.4634e-07 -1.02076e-07 1 
-9.46892e-08 -1.49613e-07 1 -4.07146e-08 -6.43309e-08 1 4.87149e-08 4.50308e-08 1 
1.3471e-08 1.24522e-08 1 -2.54779e-09 5.19424e-09 1 -2.09153e-09 4.26405e-09 1 
2.55181e-09 6.12912e-09 1 5.38743e-10 2.68865e-07 1 7.15842e-09 4.86136e-08 1 
-1.42928e-10 1.85166e-10 1 -1.04736e-10 1.35686e-10 1 -1.3096e-09 1.74904e-09 1 
-5.85564e-10 7.82052e-10 1 -2.60387e-08 -2.14757e-09 1 -1.44609e-08 4.60632e-09 1 
-3.10039e-08 -2.55709e-09 1 -5.10415e-11 -2.00998e-10 1 2.80243e-10 -1.76467e-10 1 
1.03363e-09 -6.50874e-10 1 -6.98075e-11 4.39546e-11 1 7.5833e-10 -4.77519e-10 1 
-2.73705e-10 -1.12389e-09 1 -2.87443e-10 -1.18031e-09 1 7.4103e-09 5.15355e-09 1 
-8.51051e-09 -5.9187e-09 1 1.12639e-08 7.83356e-09 1 2.25496e-08 1.56823e-08 1 
1.62535e-09 -1.18467e-08 1 1.40868e-09 -1.02675e-08 1 5.61955e-09 -5.21877e-10 1 
2.56156e-09 -1.86705e-08 1 2.53894e-09 -1.85056e-08 1 7.01622e-08 3.23561e-09 1 
2.17519e-08 3.05139e-08 1 4.27987e-08 1.97371e-09 1 -3.45302e-08 3.3051e-08 1 
2.38612e-08 1.10039e-09 1 4.90801e-08 2.26339e-09 1 3.17636e-08 1.46481e-09 1 
3.41475e-08 1.57475e-09 1 3.5362e-08 1.63076e-09 1 -2.11778e-08 -6.37604e-08 1 
-2.45502e-08 -1.45861e-08 1 1.04464e-08 7.15053e-09 1 -2.51449e-08 -1.49394e-08 1 
7.62457e-09 5.21899e-09 1 7.20654e-09 4.93285e-09 1 4.77102e-09 2.8996e-08 1 
2.0041e-09 1.218e-08 1 1.13799e-09 -6.59147e-10 1 5.83109e-09 6.57809e-09 1 
-6.42194e-10 7.1697e-10 1 -5.53719e-12 4.82406e-12 1 4.99424e-12 -4.35471e-12 1 
1.42877e-11 -3.1586e-11 1 2.74157e-11 1.02417e-10 1 5.58942e-11 2.08808e-10 1 
-2.5403e-09 2.19707e-08 1 -1.01455e-11 8.33362e-11 1 1.83021e-09 1.02068e-08 1 
1.33821e-09 7.46294e-09 1 2.08768e-09 1.16426e-08 1 5.79074e-10 -1.49553e-09 1 
8.20501e-10 -2.11905e-09 1 8.60677e-10 -2.22282e-09 1 7.85377e-10 -2.02834e-09 1 
4.41033e-09 1.58619e-08 1 5.4854e-10 3.79893e-09 1 -1.48944e-08 3.60112e-08 1 
-9.76985e-09 2.36212e-08 1 -1.07299e-08 2.59424e-08 1 1.49244e-10 -1.01488e-09 1 
1.97068e-11 6.13616e-11 1 -4.16332e-12 5.4712e-11 1 -2.51646e-10 4.81082e-10 1 
-8.83224e-11 1.68856e-10 1 -3.458e-10 3.34513e-09 1 -6.17688e-09 1.20406e-08 1 
-7.22437e-10 2.19282e-09 1 -8.21758e-11 1.84964e-10 1 -1.14007e-10 2.56621e-10 1 
-1.48019e-10 3.33181e-10 1 1.11242e-09 -1.02776e-09 1 8.51178e-10 -7.86409e-10 1 