# vtk DataFile Version 3.0
vtk output
ASCII
DATASET POLYDATA
POINTS 352 float
25 25 23.8659 25 25 24.788 25 25 26.4142 
25 25 25.6632 25 25 27.2732 25 25 28.1416 
25 25 28.9724 25 25 29.7266 25 25 30.6 
25 25 31.5171 25 25 33.0822 25 25 32.2757 
25 25 33.9181 25 25 35.7698 25 25 34.9229 
25 25 37.5311 25 25 36.7522 25 25 38.3594 
25 25 39.8551 25 25 39.123 25 25 41.4143 
25 25 40.6378 25 25 42.1746 25 25 43.1348 
25 25 43.9762 25 25 45.5603 25 25 44.759 
25 25 47.0741 25 25 46.2981 25 25 47.9574 
25 25 49.6306 25 25 48.739 25 25 50.4083 
25 25.0001 51.2038 25 25 51.9695 25 25 53.7724 
25 25 52.8232 25 25 55.4179 25 25 54.6385 
25 25 56.2531 25 25 57.1094 25 25 58.023 
25 25 58.8443 25 25 60.5613 25 25 59.6973 
25 25 62.2147 25 25.0001 61.3927 25 25 63.0583 
24.9999 24.9999 63.8504 25 25 64.7034 25 25 65.5029 
25 25 66.3317 25 25 67.1256 25 25 68.9469 
25 25 68.0494 25 25 69.848 25 25 70.6636 
25 25 71.4274 25 25 72.2575 25 25 73.0688 
25 25 74.6876 25 25 73.9231 25 25 75.5079 
25 25 76.3596 25 25 77.2007 25 25 78.0615 
25 25 78.8789 25 25 79.6788 25 25 80.5203 
25 25 81.4667 25 25 82.3545 25 25 84.0848 
25 25 83.2816 25 25 84.9487 25 25 85.7608 
25 25 86.5971 25 25 88.2918 25 25 87.5051 
25 25 89.0979 25 25 89.9415 25 25 90.7765 
25 25 91.5177 25 25 92.2288 25 25 93.7961 
25 25 93.0235 25 25 95.4652 25 25 94.6893 
25 25 96.2409 25 25 97.0287 25 25 97.8381 
25 25 99.4863 25 25 98.6631 25 25 100.413 
25 25 101.258 25 25 102.106 25 25 103.804 
25 25 102.914 25 25 104.601 25 25 105.465 
25 25 106.301 25 25 107.113 25 25 108.039 
25 25 108.877 25 25 109.676 25 25 110.398 
25 25 111.222 25 25 111.996 25 25 112.866 
25 25 114.475 25 25 113.668 25 25 115.997 
25 25 115.23 25 25 117.519 25 25 116.718 
25.0001 25 118.376 25 25 119.985 25 25 119.232 
25 25 121.512 25 25 120.807 25 25 122.254 
25 25 123.006 25 25 123.918 25 25 125.558 
25 24.9999 124.812 25 25 127.226 25 25 126.307 
25 25 128.726 25 25 127.965 25 25 129.547 
25 25 130.372 25 25 131.188 25.0001 25.0001 132.903 
25.0001 25.0001 132.033 25 25 133.748 25 25 134.531 
25 25 135.523 25 25 137.033 25 25 136.344 
25 25 137.892 25 25 138.789 25 25 139.576 
25 25 140.406 25 25 141.999 25 25 141.225 
25 25 142.827 25 25 143.625 25 25 145.124 
25 25 144.412 25 25 146.033 25 25 147.698 
25 25 146.853 25 25 149.307 25 25 148.524 
25 25 150.191 25 25 151.867 25 25 151.001 
25 25 153.488 25 25 152.738 25 25 154.331 
25 25 155.879 25 25 155.063 25 25 157.718 
25 25 156.826 25 25 158.49 25 25 159.33 
25 25 160.232 25 25 161.079 25 25 162.052 
25 25 162.829 25 25 164.421 25 25 163.613 
25 25 166.006 25 25 165.204 25 25 166.882 
25 25 168.395 25 25 167.713 25 25 170.033 
25 25 169.222 25 25 170.93 25 25 171.829 
25 25 172.668 25 25 173.449 25 25 174.234 
25 25 175.069 25 25 175.889 25 25 176.727 
25 25 177.538 25 25 178.358 25 25 179.268 
25 25 180.107 25 25 180.861 25 25 182.617 
25 25 181.739 25 25 183.471 25 25 184.321 
25 25 185.166 25 25 185.973 25 25 186.851 
25 25 187.58 25 25 188.456 25 25 189.215 
25 25 190.723 25 25 189.957 25 25 192.319 
25 25 191.556 25 25 193.12 25 25 193.956 
25 25 194.909 25 25 196.469 25 25 197.167 
25 25 198.729 25 25 197.928 25 25 200.41 
25 25 199.573 25 25 201.137 25 25 201.817 
25 25 202.762 25 25 204.493 25 25 203.602 
25 25 205.357 24.9999 25.0001 206.163 25 25 207.025 
25 25 208.911 25 25 207.942 25 25 209.751 
25 25 210.541 24.9999 25.0001 211.321 25 25 212.961 
25 25 212.15 25 25 213.79 25 25 214.563 
25 25 215.425 25 25 217.106 25 25 216.218 
25 25 217.944 25 25 218.733 25 25 219.552 
25 25 221.107 25 25 220.345 25 25 222.688 
25 25 221.911 25 25 223.578 25 25 224.512 
25 25 225.268 25 25 226.063 25 25 226.807 
25.0001 25 227.645 25 25 228.463 25 25 229.314 
25 25 230.093 25 25 231.835 25 25 231.059 
25 25 232.666 25 25 233.373 25 25 234.981 
25 25 234.188 25 25 236.573 25 25 235.747 
25 25 237.475 25 25 239.083 25 25 238.271 
25 25 240.004 25 25 241.7 25 25 240.954 
25 25 242.528 25 25 243.374 25 25 244.242 
25 25 246.105 25 25 245.27 25 25 246.903 
25 25 247.712 25 25 248.563 25 25 249.452 
25 25 250.348 25 25 251.229 25 25 252.991 
25 25 252.101 25 25 253.918 25 25 254.741 
25 25 255.642 25 25 257.286 25 25 256.415 
25 25 258.11 25 25 258.888 25.0001 25 259.61 
25 25 261.292 25 25 260.47 25 25 262.014 
25 25 262.895 25 25 263.75 25 25 265.339 
25 25 264.473 25 25 266.193 24.9999 25 267.802 
24.9999 25 267.066 25 25 269.507 25 25 268.65 
25 25 271.119 25 25 270.362 25 25 271.988 
25 25 273.537 25 25 272.774 25 25 275.269 
25 25 274.401 25 25 276.142 25 25 277.734 
25 25 276.914 25 25 278.572 25 25 279.368 
25 25 280.098 25 25 280.928 25 25 281.824 
25 25 282.708 25 25 283.436 25 25 284.242 
25 25 285.03 25 25 285.805 25 25 287.44 
25 25 286.697 25 25 289.018 25 25 288.208 
25 25 289.841 25 25 290.701 25 25 291.483 
25 25 292.188 25 25 293.07 25 25 293.83 
25 25 294.725 25 25 295.534 25 25 297.263 
25 25 296.441 25 25 298.096 25 25 299.723 
25 25 298.855 25 25 301.377 25 25 300.598 
25 25 302.145 25 25 303.8 25 25 302.981 
25 25 304.616 25 25 305.412 25 25 306.328 
25 25 308.182 25 25 307.29 25 25 309.021 
25 25 309.811 25 25 310.662 25 25 311.497 
25 25 312.338 25 25 313.236 25 25 314.862 
25 25 314.06 
POINT_DATA 352
FIELD FieldData 12
scale 1 352 float
0.631663 0.632584 0.667684 0.647232 0.679244 0.690047 0.701448 0.7166 0.72819 
0.736239 0.761711 0.750252 0.770099 0.777745 0.771885 0.76933 0.777317 0.753198 
0.792089 0.760991 0.870461 0.834844 0.885673 0.893817 0.906133 0.931097 0.919173 
0.95735 0.944479 0.968865 0.989211 0.979711 1.00216 1.01458 1.02615 1.04478 
1.03629 1.0703 1.05613 1.08217 1.09581 1.10239 1.11498 1.13825 1.12577 
1.16226 1.15035 1.17469 1.1848 1.19358 1.20331 1.21256 1.22236 1.23607 
1.2297 1.24415 1.25524 1.26732 1.28074 1.29722 1.33533 1.31415 1.35563 
1.37455 1.39432 1.41246 1.43044 1.44697 1.46211 1.47082 1.48294 1.50984 
1.49513 1.52321 1.53938 1.55259 1.56975 1.56093 1.57831 1.58943 1.60078 
1.61351 1.62594 1.64309 1.6354 1.65489 1.64812 1.6637 1.67289 1.68195 
1.69577 1.68927 1.69653 1.70632 1.71191 1.72396 1.71855 1.73095 1.73696 
1.74257 1.74964 1.75494 1.76182 1.76965 1.77798 1.78566 1.79448 1.80378 
1.82668 1.81541 1.85627 1.84069 1.88592 1.87179 1.89814 1.91465 1.9069 
1.91789 1.91691 1.91786 1.9176 1.91804 1.92545 1.9189 1.94692 1.9345 
1.99706 1.97294 2.01576 2.03336 2.04722 2.0817 2.07046 2.09243 2.10699 
2.11211 2.1346 2.12294 2.14475 2.1561 2.17115 2.18431 2.20817 2.19774 
2.21737 2.22609 2.24492 2.23488 2.25236 2.26929 2.26176 2.2869 2.27776 
2.29344 2.3069 2.30084 2.31963 2.3126 2.32495 2.33952 2.33276 2.35557 
2.34203 2.3648 2.37392 2.38092 2.38856 2.39414 2.40502 2.42865 2.41636 
2.45829 2.44295 2.47342 2.51036 2.4896 2.5561 2.53007 2.58162 2.61265 
2.65619 2.71006 2.75792 2.79485 2.83026 2.86504 2.90085 2.93542 2.96376 
3.00289 3.05333 3.14141 3.09868 3.17929 3.21154 3.23713 3.2603 3.27699 
3.2961 3.31309 3.33479 3.38307 3.35828 3.42771 3.40444 3.446 3.45685 
3.45192 3.55229 3.55513 3.58781 3.57143 3.6131 3.60194 3.62525 3.63696 
3.64427 3.66354 3.65396 3.67219 3.681 3.68914 3.70154 3.69594 3.71013 
3.71788 3.72699 3.74232 3.7347 3.74902 3.7561 3.76159 3.77322 3.76786 
3.77943 3.78605 3.79277 3.80589 3.79977 3.81646 3.81112 3.82047 3.82401 
3.82918 3.83406 3.83896 3.84309 3.84884 3.85464 3.86073 3.86884 3.86398 
3.87374 3.87949 3.89023 3.88474 3.90041 3.89574 3.90428 3.91379 3.90943 
3.91626 3.9241 3.91904 3.92843 3.93233 3.9357 3.94376 3.94115 3.94815 
3.9515 3.95496 3.9585 3.96717 3.97088 3.97504 3.97295 3.97666 3.97909 
3.98096 3.98705 3.98426 3.99 3.99267 3.98977 3.97963 3.98517 3.97797 
3.97709 3.97966 4.00643 3.99374 4.02093 4.04728 4.03347 4.06501 4.05702 
4.07749 4.07137 4.08236 4.09382 4.0882 4.1031 4.09856 4.10788 4.12024 
4.11422 4.12521 4.13021 4.13571 4.14055 4.14442 4.14831 4.15357 4.15791 
4.16226 4.16724 4.17734 4.17147 4.19263 4.18461 4.20437 4.21737 4.22927 
4.23968 4.24713 4.25613 4.26184 4.26882 4.27934 4.27348 4.28506 4.29777 
4.29157 4.31667 4.30567 4.33035 4.35781 4.34305 4.37127 4.38516 4.39252 
4.41594 4.40801 4.43045 4.44154 4.45103 4.45766 4.46364 4.46666 4.47311 
4.46951 
val 1 352 float
-734.212 -739.525 -741.965 -741.503 -745.089 -748.339 -752.188 -754.808 -759.274 
-764.372 -771.874 -767.254 -776.976 -788.798 -783.815 -804.703 -796.247 -815.952 
-817.93 -820.145 -808.183 -812.172 -809.475 -813.948 -816.508 -819.597 -817.999 
-821.849 -820.495 -824.046 -828.548 -825.754 -829.742 -830.928 -831.917 -836.544 
-833.742 -838.169 -838.042 -838.842 -838.871 -840.55 -840.103 -839.608 -840.091 
-838.284 -838.956 -837.815 -838.151 -839.316 -840.329 -841.818 -843.163 -847.908 
-845.564 -849.995 -851.272 -852.182 -853.089 -853.291 -853.006 -853.678 -852.909 
-853.324 -853.634 -854.332 -854.858 -855.586 -856.673 -858.948 -860.193 -861.391 
-861.261 -861.772 -861.518 -861.712 -863.578 -862.812 -864.442 -865.038 -865.566 
-865.609 -865.553 -866.621 -866.02 -868.626 -867.863 -869.077 -869.43 -869.766 
-870.934 -870.3 -872.694 -873.244 -874.602 -877.552 -875.842 -878.811 -880.394 
-881.936 -883.188 -884.967 -886.248 -887.246 -887.936 -888.922 -889.577 -890.321 
-890.732 -890.527 -889.932 -890.426 -889.296 -889.393 -889.709 -891.637 -890.7 
-895.143 -893.47 -896.979 -898.769 -900.696 -902.955 -902.374 -903.127 -903.152 
-899.176 -901.054 -897.944 -896.745 -895.898 -893.358 -893.901 -892.896 -891.989 
-892.55 -891.999 -892.359 -892.195 -892.457 -892.2 -892.309 -892.785 -892.411 
-893.422 -894.063 -895.017 -894.68 -895.998 -897.383 -896.582 -898.519 -898.03 
-899.451 -901.174 -900.18 -903 -902.253 -904.098 -905.597 -904.734 -907.291 
-907.05 -907.686 -908.158 -908.871 -909.39 -910.223 -910.235 -909.974 -910.163 
-908.947 -909.52 -908.425 -906.503 -907.736 -903.984 -905.505 -902.651 -900.962 
-898.364 -895.13 -892.591 -891.086 -889.838 -888.82 -887.851 -887.11 -886.997 
-886.229 -884.799 -883.3 -883.954 -882.875 -882.721 -882.859 -883.05 -883.625 
-883.887 -884.459 -884.674 -884.899 -884.797 -885.307 -885.202 -885.604 -886.166 
-887.376 -885.27 -885.793 -885.983 -885.88 -886.495 -886.19 -886.68 -886.851 
-887.416 -888.328 -887.833 -888.861 -889.357 -889.957 -891.519 -890.682 -892.118 
-892.69 -893.199 -894.38 -893.801 -895.001 -895.544 -896.223 -897.475 -896.793 
-898.058 -898.558 -899.061 -899.942 -899.508 -900.879 -900.428 -901.47 -902.123 
-902.579 -903.095 -903.58 -904.195 -904.741 -905.321 -905.823 -907.141 -906.606 
-907.719 -908.142 -909.174 -908.677 -910.18 -909.638 -910.812 -911.81 -911.292 
-912.484 -913.545 -913.152 -914.011 -914.481 -914.957 -915.83 -915.417 -916.121 
-916.441 -916.762 -917.09 -917.204 -917.522 -918.328 -917.914 -918.798 -919.185 
-919.654 -920.417 -919.991 -920.817 -921.208 -921.812 -923.403 -922.593 -923.984 
-924.65 -925.15 -925.11 -925.05 -925.075 -925.021 -925.127 -925.363 -925.157 
-925.83 -925.627 -926.149 -926.576 -926.367 -927.185 -926.877 -927.479 -927.833 
-927.639 -928.073 -928.279 -928.419 -928.629 -928.903 -929.156 -929.262 -929.432 
-929.581 -929.683 -929.875 -929.851 -929.78 -929.839 -929.559 -929.3 -929.068 
-928.882 -928.909 -928.832 -928.972 -929.031 -929.388 -929.25 -929.546 -929.81 
-929.64 -929.839 -929.915 -929.641 -929.302 -929.521 -929.136 -928.939 -929.081 
-928.986 -928.89 -928.773 -928.681 -928.685 -928.8 -928.939 -929.224 -929.663 
-929.47 
h0 1 352 float
174.234 175.294 176.634 176.167 177.112 177.244 176.798 175.946 175.123 
174.868 173.376 174.336 172.756 171.939 172.616 168.641 170.714 165.341 
165.601 164.491 167.216 166.922 166.961 165.968 165.144 164.903 164.876 
164.414 164.819 163.761 161.603 162.954 160.394 159.342 158.503 156.749 
157.658 155.627 156.054 155.358 155.369 155.651 156.282 157.889 157.04 
159.709 158.811 160.322 160.459 160.256 159.791 159.064 158.244 156.333 
157.264 155.294 154.234 153.192 152.092 151.159 149.618 150.333 148.844 
148.028 147.252 146.585 146.107 145.803 145.69 145.831 146.235 147.788 
146.933 148.871 149.97 151.035 152.723 152.027 153.216 153.497 153.549 
153.506 153.437 153.355 153.384 153.248 153.311 153.188 153.162 153.197 
153.311 153.275 153.157 152.716 151.973 149.938 151.061 148.903 147.745 
146.575 145.41 144.061 142.879 141.784 140.834 139.785 138.866 137.904 
136.413 137.124 135.125 135.786 133.427 134.396 132.188 129.524 130.813 
127.013 128.164 125.852 124.759 123.592 121.986 122.612 121.098 121.509 
121.167 121.114 121.305 121.59 121.988 123.003 122.492 123.44 123.755 
123.974 123.941 124.013 123.7 123.32 122.939 122.511 121.719 122.096 
121.329 120.965 120.331 120.624 119.975 119.388 119.678 118.897 119.126 
118.648 118.173 118.424 117.657 117.898 117.375 116.954 117.164 116.658 
116.726 116.623 116.618 116.641 116.691 116.769 116.867 117.106 116.976 
117.558 117.29 117.936 118.736 118.352 119.749 119.23 120.326 120.924 
121.544 122.154 122.733 123.317 123.87 124.424 124.96 125.49 126.041 
126.614 127.2 128.606 127.878 129.358 130.176 131.065 131.955 132.98 
133.878 134.986 135.996 138.09 137.01 140.416 139.281 141.639 142.954 
144.431 147.394 148.673 151.531 150.062 154.459 153.041 155.604 156.603 
157.904 159.857 158.932 160.628 161.261 161.823 162.655 162.299 162.899 
163.079 163.226 163.448 163.353 163.561 163.662 163.784 163.989 163.895 
164.098 164.169 164.254 164.37 164.327 164.425 164.42 164.404 164.322 
164.194 164 163.746 163.412 163.02 162.576 162.159 161.023 161.551 
160.465 159.979 158.719 159.367 157.377 158.074 156.575 155.09 155.844 
154.182 152.601 153.319 151.816 151.074 150.351 148.961 149.542 148.445 
147.941 147.377 146.811 146.191 145.474 143.928 144.765 143.019 142.116 
141.15 139.209 140.265 138.229 137.241 136.311 133.945 135.147 132.869 
131.554 130.252 127.908 129.201 126.634 124.36 125.364 122.019 123.178 
119.872 120.884 118.752 116.773 117.741 114.615 115.707 113.501 111.551 
112.582 110.535 109.593 108.716 107.734 106.701 105.73 104.898 103.996 
103.204 102.409 100.853 101.53 99.494 100.187 98.8018 98.0358 97.3507 
96.7047 95.8027 95.0259 94.0929 93.2454 91.4085 92.2943 90.4856 88.709 
89.64 87.0452 87.8408 86.2392 84.6302 85.4301 83.8765 83.1993 82.4152 
80.9554 81.6135 80.2626 79.641 79.0036 78.3512 77.6945 76.9827 75.6901 
76.2887 
h1 1 352 float
174.234 175.294 176.634 176.167 177.112 177.244 176.798 175.946 175.123 
174.868 173.376 174.336 172.756 171.939 172.616 168.641 170.714 165.341 
165.601 164.491 167.216 166.922 166.961 165.968 165.144 164.903 164.876 
164.414 164.819 163.761 161.603 162.954 160.394 159.342 158.503 156.749 
157.658 155.627 156.054 155.358 155.369 155.651 156.282 157.889 157.04 
159.709 158.811 160.322 160.459 160.256 159.791 159.064 158.244 156.333 
157.264 155.294 154.234 153.192 152.092 151.159 149.618 150.333 148.844 
148.028 147.252 146.585 146.107 145.803 145.69 145.831 146.235 147.788 
146.933 148.871 149.97 151.035 152.723 152.027 153.216 153.497 153.549 
153.506 153.437 153.355 153.384 153.248 153.311 153.188 153.162 153.197 
153.311 153.275 153.157 152.716 151.973 149.938 151.061 148.903 147.745 
146.575 145.41 144.061 142.879 141.784 140.834 139.785 138.866 137.904 
136.413 137.124 135.125 135.786 133.427 134.396 132.188 129.524 130.813 
127.013 128.164 125.852 124.759 123.592 121.986 122.612 121.098 121.509 
121.167 121.114 121.305 121.59 121.988 123.003 122.492 123.44 123.755 
123.974 123.941 124.013 123.7 123.32 122.939 122.511 121.719 122.096 
121.329 120.965 120.331 120.624 119.975 119.388 119.678 118.897 119.126 
118.648 118.173 118.424 117.657 117.898 117.375 116.954 117.164 116.658 
116.726 116.623 116.618 116.641 116.691 116.769 116.867 117.106 116.976 
117.558 117.29 117.936 118.736 118.352 119.749 119.23 120.326 120.924 
121.544 122.154 122.733 123.317 123.87 124.424 124.96 125.49 126.041 
126.614 127.2 128.606 127.878 129.358 130.176 131.065 131.955 132.98 
133.878 134.986 135.996 138.09 137.01 140.416 139.281 141.639 142.954 
144.431 147.394 148.673 151.531 150.062 154.459 153.041 155.604 156.603 
157.904 159.857 158.932 160.628 161.261 161.823 162.655 162.299 162.899 
163.079 163.226 163.448 163.353 163.561 163.662 163.784 163.989 163.895 
164.098 164.169 164.254 164.37 164.327 164.425 164.42 164.404 164.322 
164.194 164 163.746 163.412 163.02 162.576 162.159 161.023 161.551 
160.465 159.979 158.719 159.367 157.377 158.074 156.575 155.09 155.844 
154.182 152.601 153.319 151.816 151.074 150.351 148.961 149.542 148.445 
147.941 147.377 146.811 146.191 145.474 143.928 144.765 143.019 142.116 
141.15 139.209 140.265 138.229 137.241 136.311 133.945 135.147 132.869 
131.554 130.252 127.908 129.201 126.634 124.36 125.364 122.019 123.178 
119.872 120.884 118.752 116.773 117.741 114.615 115.707 113.501 111.551 
112.582 110.535 109.593 108.716 107.734 106.701 105.73 104.898 103.996 
103.204 102.409 100.853 101.53 99.494 100.187 98.8018 98.0358 97.3507 
96.7047 95.8027 95.0259 94.0929 93.2454 91.4085 92.2943 90.4856 88.709 
89.64 87.0452 87.8408 86.2392 84.6302 85.4301 83.8765 83.1993 82.4152 
80.9554 81.6135 80.2626 79.641 79.0036 78.3512 77.6945 76.9827 75.6901 
76.2887 
h2 1 352 float
-0.0292713 0.126964 -0.228412 -0.448145 0.195601 -0.960807 -0.0576068 -0.279654 0.312638 
-0.393418 0.336776 -1.03926 0.988474 0.21607 -0.582299 -0.0705786 -0.812537 0.296717 
1.31447 -0.543706 -0.409042 0.0237674 -0.0920855 -0.161331 0.691887 -0.198783 0.28094 
0.185914 -0.327158 0.0438321 0.0534374 -0.210535 0.374299 0.520198 -0.0981382 0.235842 
-0.147509 0.500029 0.410684 0.512832 0.355943 0.670611 0.0717041 0.303333 0.154436 
-0.490117 0.100957 -0.976898 -0.588036 -0.556769 -0.489424 -0.266133 0.136266 -0.219747 
0.445643 -0.447491 -0.0694621 0.169912 0.228576 0.0268034 -0.0837816 -0.0881318 -0.0242926 
0.0661104 0.171523 0.346259 -0.00314549 0.207965 0.544937 0.800526 0.802693 0.3179 
0.614019 0.318284 0.107797 -0.158308 -0.0908594 -0.193826 -0.0340426 0.00319594 0.213125 
0.344996 0.398458 -0.0921099 0.284275 0.0767687 -0.115769 0.297357 0.310565 0.313134 
-0.458003 0.018876 -0.884604 -0.918506 -0.578065 -0.10404 -0.30311 0.0108759 0.0862432 
0.118691 0.126627 0.184973 0.283134 0.273883 0.273153 0.294741 0.38486 0.367144 
0.255009 0.342222 -0.146061 0.106468 -0.652483 -0.466624 -0.625582 -0.129078 -0.372875 
0.404922 0.15366 0.630587 0.770885 0.71896 0.536668 0.574517 0.543089 0.527875 
0.619745 0.56729 0.613569 0.516262 0.313103 -0.303122 -3.70113e-05 -0.506812 -0.644931 
-0.746838 -0.856115 -0.813229 -0.766336 -0.540824 -0.331294 -0.159232 -0.0266601 -0.0619799 
-0.00182803 0.0538249 0.175888 0.116572 0.236632 0.238214 0.256505 0.0852831 0.177206 
-0.0546515 -0.26262 -0.197284 -0.0359368 -0.180756 0.154769 0.425312 0.312849 0.455953 
0.465321 0.432155 0.405666 0.391782 0.401262 0.437526 0.482506 0.527453 0.516011 
0.450164 0.510477 0.336959 0.0791863 0.20132 -0.246927 -0.0798236 -0.429856 -0.593023 
-0.726657 -0.847128 -0.945113 -0.998999 -0.999484 -0.916296 -0.76147 -0.542953 -0.239269 
0.0600839 0.294146 0.582093 0.485949 0.564837 0.4584 0.305039 0.132115 0.00918991 
-0.00799448 0.046302 0.160503 0.554409 0.342637 0.888449 0.750556 0.969004 0.980751 
0.861094 0.613586 0.467203 0.0938099 0.27628 -0.217067 -0.0699743 -0.336643 -0.412768 
-0.509548 -0.592893 -0.564703 -0.5849 -0.539954 -0.421325 -0.111386 -0.286681 -0.00391234 
0.067362 0.108868 0.118496 0.118734 0.127187 0.154814 0.202637 0.314782 0.257633 
0.409723 0.418433 0.434 0.296992 0.400609 0.0135784 0.187665 -0.179238 -0.341416 
-0.424914 -0.452457 -0.406678 -0.278173 -0.172064 -0.0677052 0.0609493 0.108786 0.111522 
0.142731 0.152762 0.149557 0.14536 0.155907 0.154105 0.146378 0.220818 0.153045 
0.241128 0.47244 0.395772 0.560599 0.639929 0.686868 0.605754 0.64942 0.490276 
0.358383 0.192154 0.0321964 -0.109639 -0.239763 -0.303548 -0.286372 -0.259234 -0.245367 
-0.185644 -0.221991 -0.182927 -0.230228 -0.261018 -0.285084 -0.22208 -0.267406 -0.197296 
-0.0740887 0.0175442 0.138571 0.0699389 0.226371 0.283231 0.216384 0.267068 0.262747 
0.183094 0.251888 0.197858 0.125898 0.128084 0.124553 0.128196 0.165474 0.223252 
0.205724 0.255171 0.276871 0.281741 0.263787 0.306928 0.324514 0.337966 0.354363 
0.378245 0.378373 0.237998 0.307044 0.0245981 0.155466 -0.109726 -0.23022 -0.309537 
-0.360848 -0.389431 -0.370294 -0.341852 -0.307341 -0.248833 -0.274478 -0.199233 -0.129595 
-0.188709 0.000519798 -0.057598 0.0480255 0.128015 0.0876842 0.139431 0.152188 0.156694 
0.120866 0.124473 0.106764 0.0786492 0.124627 0.164881 0.214653 0.304006 0.517706 
0.396885 
hmode 1 352 float
-1 -1 -1 -1 -1 -1 -1 -1 -1 
-1 -1 -1 -1 -1 -1 -1 -1 -1 
-1 -1 -1 -1 -1 -1 -1 -1 -1 
-1 -1 -1 -1 -1 -1 -1 -1 -1 
-1 -1 -1 -1 -1 -1 -1 -1 -1 
-1 -1 -1 -1 -1 -1 -1 -1 -1 
-1 -1 -1 -1 -1 -1 -1 -1 -1 
-1 -1 -1 -1 -1 -1 -1 -1 -1 
-1 -1 -1 -1 -1 -1 -1 -1 -1 
-1 -1 -1 -1 -1 -1 -1 -1 -1 
-1 -1 -1 -1 -1 -1 -1 -1 -1 
-1 -1 -1 -1 -1 -1 -1 -1 -1 
-1 -1 -1 -1 -1 -1 -1 -1 -1 
-1 -1 -1 -1 -1 -1 -1 -1 -1 
-1 -1 -1 -1 -1 -1 -1 -1 -1 
-1 -1 -1 -1 -1 -1 -1 -1 -1 
-1 -1 -1 -1 -1 -1 -1 -1 -1 
-1 -1 -1 -1 -1 -1 -1 -1 -1 
-1 -1 -1 -1 -1 -1 -1 -1 -1 
-1 -1 -1 -1 -1 -1 -1 -1 -1 
-1 -1 -1 -1 -1 -1 -1 -1 -1 
-1 -1 -1 -1 -1 -1 -1 -1 -1 
-1 -1 -1 -1 -1 -1 -1 -1 -1 
-1 -1 -1 -1 -1 -1 -1 -1 -1 
-1 -1 -1 -1 -1 -1 -1 -1 -1 
-1 -1 -1 -1 -1 -1 -1 -1 -1 
-1 -1 -1 -1 -1 -1 -1 -1 -1 
-1 -1 -1 -1 -1 -1 -1 -1 -1 
-1 -1 -1 -1 -1 -1 -1 -1 -1 
-1 -1 -1 -1 -1 -1 -1 -1 -1 
-1 -1 -1 -1 -1 -1 -1 -1 -1 
-1 -1 -1 -1 -1 -1 -1 -1 -1 
-1 -1 -1 -1 -1 -1 -1 -1 -1 
-1 -1 -1 -1 -1 -1 -1 -1 -1 
-1 -1 -1 -1 -1 -1 -1 -1 -1 
-1 -1 -1 -1 -1 -1 -1 -1 -1 
-1 -1 -1 -1 -1 -1 -1 -1 -1 
-1 -1 -1 -1 -1 -1 -1 -1 -1 
-1 -1 -1 -1 -1 -1 -1 -1 -1 
-1 
hevec0 3 352 float
0.707107 -0.707107 -1.67712e-09 0.707107 -0.707107 -9.28506e-10 0.707107 -0.707107 -4.3257e-08 
0.707107 -0.707107 -2.69646e-10 0.707107 -0.707107 -1.47724e-09 0.707107 -0.707107 -2.43106e-11 
0.707107 -0.707107 1.34071e-10 0.707107 -0.707107 4.96778e-09 0.707107 -0.707107 -1.95215e-08 
0.707107 -0.707107 6.63956e-09 0.707107 -0.707107 1.35451e-08 0.707107 -0.707107 -3.48593e-08 
0.707107 -0.707107 4.10048e-09 0.707107 -0.707107 8.45613e-09 0.707107 -0.707107 3.14946e-09 
0.707107 -0.707107 2.01326e-08 0.707107 -0.707107 1.21618e-08 0.707107 -0.707107 -4.16133e-09 
0.707107 -0.707107 3.09539e-09 0.707107 -0.707107 -5.42727e-09 0.707107 -0.707107 3.16665e-10 
0.707107 -0.707107 1.53803e-09 0.707107 -0.707107 -2.62737e-10 0.707107 -0.707107 -4.79072e-10 
0.707107 -0.707107 6.46874e-08 0.707107 -0.707107 -1.2965e-10 0.707107 -0.707107 -2.04197e-08 
0.707107 -0.707107 -2.84112e-07 0.707107 -0.707107 -2.09091e-10 0.707107 -0.707107 6.55249e-10 
0.707107 -0.707107 1.304e-11 0.707107 -0.707107 9.53264e-12 0.707107 -0.707107 3.0846e-09 
0.707107 -0.707107 6.792e-07 0.707107 -0.707107 -1.29533e-10 0.707107 -0.707107 -1.07201e-08 
0.707107 -0.707107 8.38362e-09 0.707107 -0.707107 -6.17787e-09 0.707107 -0.707107 -9.20511e-09 
0.707107 -0.707107 -9.87763e-09 0.707107 -0.707107 3.0515e-09 0.707107 -0.707107 -7.11437e-09 
0.707107 -0.707107 1.38969e-08 0.707107 -0.707107 -1.18301e-08 0.707107 -0.707107 -1.08415e-08 
0.707107 -0.707107 2.20282e-08 0.707107 -0.707107 -2.13163e-07 0.707107 -0.707107 9.18462e-09 
0.707107 -0.707107 5.05473e-10 0.707107 -0.707107 1.47179e-08 0.707107 -0.707107 2.42296e-08 
0.707107 -0.707107 3.13693e-08 0.707107 -0.707107 -8.40535e-08 0.707107 -0.707107 -2.18298e-09 
0.707107 -0.707107 -8.34952e-08 0.707107 -0.707107 -2.82684e-08 0.707107 -0.707107 1.36447e-08 
0.707107 -0.707107 8.66768e-09 0.707107 -0.707107 7.83913e-09 0.707107 -0.707107 6.73037e-09 
0.707107 -0.707107 1.2664e-09 0.707107 -0.707107 6.34e-09 0.707107 -0.707107 6.8699e-10 
0.707107 -0.707107 7.07962e-10 0.707107 -0.707107 5.92905e-08 0.707107 -0.707107 -3.08793e-08 
0.707107 -0.707107 6.18916e-08 0.707107 -0.707107 4.45475e-10 0.707107 -0.707107 -5.89472e-11 
0.707107 -0.707107 -5.4907e-10 0.707107 -0.707107 -1.11875e-09 0.707107 -0.707107 -9.80971e-11 
0.707107 -0.707107 -1.55492e-07 0.707107 -0.707107 5.52772e-09 0.707107 -0.707107 5.59768e-09 
0.707107 -0.707107 3.19355e-08 0.707107 -0.707107 -3.8613e-09 0.707107 -0.707107 7.43802e-08 
0.707107 -0.707107 -3.30915e-08 0.707107 -0.707107 8.15216e-10 0.707107 -0.707107 -1.46976e-09 
0.707107 -0.707107 1.84155e-08 0.707107 -0.707107 7.99188e-09 0.707107 -0.707107 -2.69532e-11 
0.707107 -0.707107 1.13359e-10 0.707107 -0.707107 -1.75757e-08 0.707107 -0.707107 -1.33096e-08 
0.707107 -0.707107 2.95448e-09 0.707107 -0.707107 -4.27129e-12 0.707107 -0.707107 -1.43848e-10 
0.707107 -0.707107 -2.91786e-10 0.707107 -0.707107 -1.53361e-10 0.707107 -0.707107 5.65639e-09 
0.707107 -0.707107 -6.98e-08 0.707107 -0.707107 -5.53506e-09 0.707107 -0.707107 -1.07783e-08 
0.707107 -0.707107 2.44354e-08 0.707107 -0.707107 6.31673e-08 0.707107 -0.707107 -9.92846e-11 
0.707107 -0.707107 3.75361e-08 0.707107 -0.707107 2.46817e-07 0.707107 -0.707107 2.50894e-07 
0.707107 -0.707107 6.42829e-09 0.707107 -0.707107 6.36804e-09 0.707107 -0.707107 6.18751e-09 
0.707107 -0.707107 3.15515e-08 0.707107 -0.707107 -1.45014e-07 0.707107 -0.707107 4.64931e-08 
0.707107 -0.707107 -2.18667e-08 0.707107 -0.707107 -2.85025e-07 0.707107 -0.707107 5.17479e-08 
0.707107 -0.707107 5.14069e-08 0.707107 -0.707107 1.50451e-12 0.707107 -0.707107 1.45639e-07 
0.707107 -0.707107 -4.16924e-07 0.707107 -0.707107 1.71775e-07 0.707107 -0.707107 1.61055e-07 
0.707107 -0.707107 4.51252e-08 0.707107 -0.707107 1.80055e-07 0.707107 -0.707107 -3.27157e-10 
0.707107 -0.707107 2.85588e-09 0.707107 -0.707107 -1.62867e-08 0.707107 -0.707107 -1.18054e-07 
0.707107 -0.707107 -4.16331e-07 0.707107 -0.707107 -7.70956e-08 0.707107 -0.707107 -1.00078e-07 
0.707107 -0.707107 -8.68688e-11 0.707107 -0.707107 -5.71691e-10 0.707107 -0.707107 1.81178e-10 
0.707107 -0.707107 1.26867e-07 0.707107 -0.707107 1.72955e-07 0.707107 -0.707107 5.09531e-09 
0.707107 -0.707107 5.58796e-09 0.707107 -0.707107 -3.88478e-09 0.707107 -0.707107 2.96275e-11 
0.707107 -0.707107 -7.85474e-12 0.707107 -0.707107 1.06845e-08 0.707107 -0.707107 7.43879e-11 
0.707107 -0.707107 -1.42463e-09 0.707107 -0.707107 -2.68734e-07 0.707107 -0.707107 -5.49329e-13 
0.707107 -0.707107 -3.16641e-08 0.707107 -0.707107 -2.87796e-08 0.707107 -0.707107 -2.98207e-08 
0.707107 -0.707107 -1.04574e-09 0.707107 -0.707107 2.13702e-08 0.707107 -0.707107 -2.16996e-08 
0.707107 -0.707107 -2.15535e-10 0.707107 -0.707107 3.84458e-08 0.707107 -0.707107 6.45045e-08 
0.707107 -0.707107 2.72569e-10 0.707107 -0.707107 6.31251e-09 0.707107 -0.707107 4.86389e-10 
0.707107 -0.707107 1.10672e-09 0.707107 -0.707107 -6.99065e-10 0.707107 -0.707107 3.98734e-08 
0.707107 -0.707107 1.07801e-07 0.707107 -0.707107 2.35768e-10 0.707107 -0.707107 3.967e-08 
0.707107 -0.707107 1.52853e-08 0.707107 -0.707107 1.77107e-08 0.707107 -0.707107 1.00507e-09 
0.707107 -0.707107 4.95186e-11 0.707107 -0.707107 -3.22889e-09 0.707107 -0.707107 8.21763e-11 
0.707107 -0.707107 -3.99608e-10 0.707107 -0.707107 1.91489e-10 0.707107 -0.707107 3.02058e-10 
0.707107 -0.707107 -6.01149e-11 0.707107 -0.707107 -3.02099e-10 0.707107 -0.707107 -7.90995e-09 
0.707107 -0.707107 1.10413e-10 0.707107 -0.707107 1.956e-08 0.707107 -0.707107 1.32159e-07 
0.707107 -0.707107 4.88967e-10 0.707107 -0.707107 -3.69507e-09 0.707107 -0.707107 -9.31859e-10 
0.707107 -0.707107 1.44401e-12 0.707107 -0.707107 1.13262e-08 0.707107 -0.707107 4.60722e-08 
0.707107 -0.707107 -3.34252e-09 0.707107 -0.707107 -2.70115e-08 0.707107 -0.707107 -2.8455e-08 
0.707107 -0.707107 -1.74034e-08 0.707107 -0.707107 1.80512e-08 0.707107 -0.707107 2.40446e-09 
0.707107 -0.707107 -1.10985e-11 0.707107 -0.707107 -9.01248e-12 0.707107 -0.707107 -1.88867e-07 
0.707107 -0.707107 1.19462e-10 0.707107 -0.707107 1.4e-10 0.707107 -0.707107 -3.09894e-10 
0.707107 -0.707107 -2.74611e-10 0.707107 -0.707107 4.1128e-08 0.707107 -0.707107 -2.76361e-08 
0.707107 -0.707107 -2.8708e-08 0.707107 -0.707107 5.35948e-09 0.707107 -0.707107 -1.02351e-08 
0.707107 -0.707107 -1.2129e-10 0.707107 -0.707107 -3.67079e-07 0.707107 -0.707107 -9.5611e-09 
0.707107 -0.707107 -1.48051e-08 0.707107 -0.707107 -1.73636e-08 0.707107 -0.707107 6.21699e-10 
0.707107 -0.707107 3.57022e-10 0.707107 -0.707107 6.36259e-10 0.707107 -0.707107 9.47439e-12 
0.707107 -0.707107 1.51234e-08 0.707107 -0.707107 -1.98419e-07 0.707107 -0.707107 -1.58468e-09 
0.707107 -0.707107 -2.69481e-08 0.707107 -0.707107 -1.24283e-08 0.707107 -0.707107 6.07765e-10 
0.707107 -0.707107 6.67254e-10 0.707107 -0.707107 1.10387e-07 0.707107 -0.707107 -2.2998e-09 
0.707107 -0.707107 6.44369e-09 0.707107 -0.707107 -4.34753e-08 0.707107 -0.707107 -2.26072e-09 
0.707107 -0.707107 5.79233e-10 0.707107 -0.707107 -3.73772e-07 0.707107 -0.707107 1.02773e-08 
0.707107 -0.707107 1.35222e-09 0.707107 -0.707107 7.10524e-09 0.707107 -0.707107 4.86013e-09 
0.707107 -0.707107 -3.67431e-08 0.707107 -0.707107 -1.02663e-07 0.707107 -0.707107 -1.96552e-10 
0.707107 -0.707107 -7.33704e-11 0.707107 -0.707107 -2.39127e-10 0.707107 -0.707107 -8.53826e-09 
0.707107 -0.707107 -2.95412e-11 0.707107 -0.707107 6.34951e-10 0.707107 -0.707107 -2.21251e-11 
0.707107 -0.707107 1.25867e-08 0.707107 -0.707107 3.18374e-09 0.707107 -0.707107 -3.00365e-09 
0.707107 -0.707107 -9.84348e-10 0.707107 -0.707107 8.19344e-10 0.707107 -0.707107 -1.02084e-11 
0.707107 -0.707107 -1.38391e-09 0.707107 -0.707107 -1.20076e-10 0.707107 -0.707107 -6.18745e-11 
0.707107 -0.707107 3.90854e-09 0.707107 -0.707107 -3.21564e-10 0.707107 -0.707107 -5.89382e-09 
0.707107 -0.707107 -7.29736e-08 0.707107 -0.707107 1.0661e-07 0.707107 -0.707107 5.0489e-09 
0.707107 -0.707107 7.01347e-09 0.707107 -0.707107 -2.56554e-08 0.707107 -0.707107 -2.49698e-08 
0.707107 -0.707107 -2.4721e-08 0.707107 -0.707107 2.41855e-09 0.707107 -0.707107 -2.55172e-09 
0.707107 -0.707107 -2.39596e-09 0.707107 -0.707107 1.07176e-07 0.707107 -0.707107 1.06764e-10 
0.707107 -0.707107 1.09998e-07 0.707107 -0.707107 -1.82576e-09 0.707107 -0.707107 -3.10728e-09 
0.707107 -0.707107 -5.19297e-10 0.707107 -0.707107 -1.472e-07 0.707107 -0.707107 2.23083e-09 
0.707107 -0.707107 4.70566e-08 0.707107 -0.707107 4.41857e-08 0.707107 -0.707107 4.35634e-08 
0.707107 -0.707107 -1.31066e-10 0.707107 -0.707107 4.184e-08 0.707107 -0.707107 3.69312e-09 